 Entering Gaussian System, Link 0=g09
 Input=5_opts1.com
 Output=5_opts1.out
 Initial command:
 /share/apps/gaussian/g09_D01/g09/l1.exe "/tmp/4018087.1.chemistry.q/Gau-14475.inp" -scrdir="/tmp/4018087.1.chemistry.q/"
 Entering Link 1 = /share/apps/gaussian/g09_D01/g09/l1.exe PID=     14476.
  
 Copyright (c) 1988,1990,1992,1993,1995,1998,2003,2009,2013,
            Gaussian, Inc.  All Rights Reserved.
  
 This is part of the Gaussian(R) 09 program.  It is based on
 the Gaussian(R) 03 system (copyright 2003, Gaussian, Inc.),
 the Gaussian(R) 98 system (copyright 1998, Gaussian, Inc.),
 the Gaussian(R) 94 system (copyright 1995, Gaussian, Inc.),
 the Gaussian 92(TM) system (copyright 1992, Gaussian, Inc.),
 the Gaussian 90(TM) system (copyright 1990, Gaussian, Inc.),
 the Gaussian 88(TM) system (copyright 1988, Gaussian, Inc.),
 the Gaussian 86(TM) system (copyright 1986, Carnegie Mellon
 University), and the Gaussian 82(TM) system (copyright 1983,
 Carnegie Mellon University). Gaussian is a federally registered
 trademark of Gaussian, Inc.
  
 This software contains proprietary and confidential information,
 including trade secrets, belonging to Gaussian, Inc.
  
 This software is provided under written license and may be
 used, copied, transmitted, or stored only in accord with that
 written license.
  
 The following legend is applicable only to US Government
 contracts under FAR:
  
                    RESTRICTED RIGHTS LEGEND
  
 Use, reproduction and disclosure by the US Government is
 subject to restrictions as set forth in subparagraphs (a)
 and (c) of the Commercial Computer Software - Restricted
 Rights clause in FAR 52.227-19.
  
 Gaussian, Inc.
 340 Quinnipiac St., Bldg. 40, Wallingford CT 06492
  
  
 ---------------------------------------------------------------
 Warning -- This program may not be used in any manner that
 competes with the business of Gaussian, Inc. or will provide
 assistance to any competitor of Gaussian, Inc.  The licensee
 of this program is prohibited from giving any competitor of
 Gaussian, Inc. access to this program.  By using this program,
 the user acknowledges that Gaussian, Inc. is engaged in the
 business of creating and licensing software in the field of
 computational chemistry and represents and warrants to the
 licensee that it is not a competitor of Gaussian, Inc. and that
 it will not use this program in any manner prohibited above.
 ---------------------------------------------------------------
  

 Cite this work as:
 Gaussian 09, Revision D.01,
 M. J. Frisch, G. W. Trucks, H. B. Schlegel, G. E. Scuseria, 
 M. A. Robb, J. R. Cheeseman, G. Scalmani, V. Barone, B. Mennucci, 
 G. A. Petersson, H. Nakatsuji, M. Caricato, X. Li, H. P. Hratchian, 
 A. F. Izmaylov, J. Bloino, G. Zheng, J. L. Sonnenberg, M. Hada, 
 M. Ehara, K. Toyota, R. Fukuda, J. Hasegawa, M. Ishida, T. Nakajima, 
 Y. Honda, O. Kitao, H. Nakai, T. Vreven, J. A. Montgomery, Jr., 
 J. E. Peralta, F. Ogliaro, M. Bearpark, J. J. Heyd, E. Brothers, 
 K. N. Kudin, V. N. Staroverov, T. Keith, R. Kobayashi, J. Normand, 
 K. Raghavachari, A. Rendell, J. C. Burant, S. S. Iyengar, J. Tomasi, 
 M. Cossi, N. Rega, J. M. Millam, M. Klene, J. E. Knox, J. B. Cross, 
 V. Bakken, C. Adamo, J. Jaramillo, R. Gomperts, R. E. Stratmann, 
 O. Yazyev, A. J. Austin, R. Cammi, C. Pomelli, J. W. Ochterski, 
 R. L. Martin, K. Morokuma, V. G. Zakrzewski, G. A. Voth, 
 P. Salvador, J. J. Dannenberg, S. Dapprich, A. D. Daniels, 
 O. Farkas, J. B. Foresman, J. V. Ortiz, J. Cioslowski, 
 and D. J. Fox, Gaussian, Inc., Wallingford CT, 2013.
 
 ******************************************
 Gaussian 09:  ES64L-G09RevD.01 24-Apr-2013
                19-Jun-2017 
 ******************************************
 %chk=5_opt.chk
 %mem=14GB
 %nproc=2
 Will use up to    2 processors via shared memory.
 ---------------------------------------------
 # wb97xd 6-311++g** opt td=(nstates=1,root=1)
 ---------------------------------------------
 1/14=-1,18=20,19=15,26=3,38=1/1,3;
 2/9=110,12=2,17=6,18=5,40=1/2;
 3/5=4,6=6,7=1111,11=9,16=1,25=1,30=1,71=1,74=-58/1,2,8,3;
 4//1;
 5/5=2,38=5/2;
 8/6=1,10=2,107=1,108=1/1;
 9/8=1,15=2,41=1,42=1,70=2/14;
 10/5=4/2;
 6/7=2,8=2,9=2,10=2/1;
 7/12=6,13=5,14=1/1,2,3,16;
 1/14=-1,18=20,19=15,26=3/3(2);
 2/9=110/2;
 99//99;
 2/9=110/2;
 3/5=4,6=6,7=1111,11=9,16=1,25=1,30=1,71=1,74=-58/1,2,8,3;
 4/5=5,16=3,69=1/1;
 5/5=2,38=5/2;
 8/6=1,10=2,107=1,108=1/1;
 9/8=1,15=2,41=1,42=1,49=4,70=2/14;
 10/5=4/2;
 7/12=6,13=5,14=1/1,2,3,16;
 1/14=-1,18=20,19=15,26=3/3(-8);
 2/9=110/2;
 6/7=2,8=2,9=2,10=2/1;
 99//99;
 -----------
 Geom Opt s1
 -----------
 Symbolic Z-matrix:
 Charge =  0 Multiplicity = 1
 C                    -0.00594   0.2586    8.59834 
 H                     0.94413   0.71519   8.8749 
 H                    -0.7869    1.02805   8.62294 
 C                     1.26628   0.02525   6.479 
 H                     1.26581   1.09307   6.23187 
 N                     0.11245  -0.33121   7.28121 
 H                    -0.24991  -0.50826   9.33952 
 H                     1.25577  -0.54423   5.54993 
 H                     2.19036  -0.20785   7.01553 
 C                    -0.90377  -1.04026   6.76384 
 H                    -0.74347  -1.4294    5.76242 
 C                    -2.0926   -1.32356   7.36221 
 C                    -3.0517   -2.13261   6.63434 
 H                    -2.32474  -0.94996   8.34738 
 O                    -2.78381  -2.56547   5.49899 
 C                    -4.37343  -2.45086   7.23512 
 C                    -5.29832  -3.22976   6.49891 
 C                    -4.75402  -2.01247   8.51321 
 O                    -5.03662  -3.69724   5.27783 
 C                    -6.54813  -3.53681   7.05206 
 C                    -5.98649  -2.31818   9.05429 
 H                    -4.06843  -1.41637   9.10178 
 H                    -4.12565  -3.39104   5.05339 
 H                    -7.23076  -4.1346    6.46001 
 C                    -6.88565  -3.0871    8.31109 
 H                    -7.85753  -3.33378   8.72474 
 O                    -6.33925  -1.84965   10.36944 
 C                    -6.60871  -2.81349   11.37408 
 H                    -7.46226  -3.45031   11.10774 
 H                    -5.73645  -3.45031   11.57065 
 H                    -6.85067  -2.24954   12.27615 
 

 GradGradGradGradGradGradGradGradGradGradGradGradGradGradGradGradGradGrad
 Berny optimization.
 Initialization pass.
                           ----------------------------
                           !    Initial Parameters    !
                           ! (Angstroms and Degrees)  !
 --------------------------                            --------------------------
 ! Name  Definition              Value          Derivative Info.                !
 --------------------------------------------------------------------------------
 ! R1    R(1,2)                  1.0898         estimate D2E/DX2                !
 ! R2    R(1,3)                  1.0966         estimate D2E/DX2                !
 ! R3    R(1,6)                  1.448          estimate D2E/DX2                !
 ! R4    R(1,7)                  1.0941         estimate D2E/DX2                !
 ! R5    R(4,5)                  1.096          estimate D2E/DX2                !
 ! R6    R(4,6)                  1.4498         estimate D2E/DX2                !
 ! R7    R(4,8)                  1.0898         estimate D2E/DX2                !
 ! R8    R(4,9)                  1.0937         estimate D2E/DX2                !
 ! R9    R(6,10)                 1.3428         estimate D2E/DX2                !
 ! R10   R(10,11)                1.0863         estimate D2E/DX2                !
 ! R11   R(10,12)                1.3608         estimate D2E/DX2                !
 ! R12   R(12,13)                1.4506         estimate D2E/DX2                !
 ! R13   R(12,14)                1.0789         estimate D2E/DX2                !
 ! R14   R(13,15)                1.2442         estimate D2E/DX2                !
 ! R15   R(13,16)                1.4863         estimate D2E/DX2                !
 ! R16   R(16,17)                1.4157         estimate D2E/DX2                !
 ! R17   R(16,18)                1.4038         estimate D2E/DX2                !
 ! R18   R(17,19)                1.3334         estimate D2E/DX2                !
 ! R19   R(17,20)                1.4008         estimate D2E/DX2                !
 ! R20   R(18,21)                1.3803         estimate D2E/DX2                !
 ! R21   R(18,22)                1.0825         estimate D2E/DX2                !
 ! R22   R(19,23)                0.9869         estimate D2E/DX2                !
 ! R23   R(20,24)                1.0835         estimate D2E/DX2                !
 ! R24   R(20,25)                1.3789         estimate D2E/DX2                !
 ! R25   R(21,25)                1.3972         estimate D2E/DX2                !
 ! R26   R(21,27)                1.44           estimate D2E/DX2                !
 ! R27   R(25,26)                1.0847         estimate D2E/DX2                !
 ! R28   R(27,28)                1.4181         estimate D2E/DX2                !
 ! R29   R(28,29)                1.0977         estimate D2E/DX2                !
 ! R30   R(28,30)                1.0977         estimate D2E/DX2                !
 ! R31   R(28,31)                1.091          estimate D2E/DX2                !
 ! A1    A(2,1,3)              108.7348         estimate D2E/DX2                !
 ! A2    A(2,1,6)              109.2826         estimate D2E/DX2                !
 ! A3    A(2,1,7)              108.4308         estimate D2E/DX2                !
 ! A4    A(3,1,6)              111.373          estimate D2E/DX2                !
 ! A5    A(3,1,7)              108.5308         estimate D2E/DX2                !
 ! A6    A(6,1,7)              110.4234         estimate D2E/DX2                !
 ! A7    A(5,4,6)              111.3432         estimate D2E/DX2                !
 ! A8    A(5,4,8)              108.4749         estimate D2E/DX2                !
 ! A9    A(5,4,9)              108.5796         estimate D2E/DX2                !
 ! A10   A(6,4,8)              109.6073         estimate D2E/DX2                !
 ! A11   A(6,4,9)              110.4007         estimate D2E/DX2                !
 ! A12   A(8,4,9)              108.3615         estimate D2E/DX2                !
 ! A13   A(1,6,4)              117.9196         estimate D2E/DX2                !
 ! A14   A(1,6,10)             120.2438         estimate D2E/DX2                !
 ! A15   A(4,6,10)             121.26           estimate D2E/DX2                !
 ! A16   A(6,10,11)            115.6379         estimate D2E/DX2                !
 ! A17   A(6,10,12)            126.9902         estimate D2E/DX2                !
 ! A18   A(11,10,12)           117.3704         estimate D2E/DX2                !
 ! A19   A(10,12,13)           118.2363         estimate D2E/DX2                !
 ! A20   A(10,12,14)           121.1592         estimate D2E/DX2                !
 ! A21   A(13,12,14)           120.6013         estimate D2E/DX2                !
 ! A22   A(12,13,15)           120.633          estimate D2E/DX2                !
 ! A23   A(12,13,16)           120.3019         estimate D2E/DX2                !
 ! A24   A(15,13,16)           119.0645         estimate D2E/DX2                !
 ! A25   A(13,16,17)           119.247          estimate D2E/DX2                !
 ! A26   A(13,16,18)           122.8365         estimate D2E/DX2                !
 ! A27   A(17,16,18)           117.9165         estimate D2E/DX2                !
 ! A28   A(16,17,19)           122.7449         estimate D2E/DX2                !
 ! A29   A(16,17,20)           119.877          estimate D2E/DX2                !
 ! A30   A(19,17,20)           117.3781         estimate D2E/DX2                !
 ! A31   A(16,18,21)           121.9939         estimate D2E/DX2                !
 ! A32   A(16,18,22)           119.6898         estimate D2E/DX2                !
 ! A33   A(21,18,22)           118.3164         estimate D2E/DX2                !
 ! A34   A(17,19,23)           106.2981         estimate D2E/DX2                !
 ! A35   A(17,20,24)           117.8583         estimate D2E/DX2                !
 ! A36   A(17,20,25)           120.4949         estimate D2E/DX2                !
 ! A37   A(24,20,25)           121.6468         estimate D2E/DX2                !
 ! A38   A(18,21,25)           119.2099         estimate D2E/DX2                !
 ! A39   A(18,21,27)           120.3106         estimate D2E/DX2                !
 ! A40   A(25,21,27)           120.4795         estimate D2E/DX2                !
 ! A41   A(20,25,21)           120.5079         estimate D2E/DX2                !
 ! A42   A(20,25,26)           119.5623         estimate D2E/DX2                !
 ! A43   A(21,25,26)           119.9298         estimate D2E/DX2                !
 ! A44   A(21,27,28)           118.1923         estimate D2E/DX2                !
 ! A45   A(27,28,29)           111.7263         estimate D2E/DX2                !
 ! A46   A(27,28,30)           111.7263         estimate D2E/DX2                !
 ! A47   A(27,28,31)           106.0557         estimate D2E/DX2                !
 ! A48   A(29,28,30)           108.9504         estimate D2E/DX2                !
 ! A49   A(29,28,31)           109.1492         estimate D2E/DX2                !
 ! A50   A(30,28,31)           109.1492         estimate D2E/DX2                !
 ! D1    D(2,1,6,4)            -13.4848         estimate D2E/DX2                !
 ! D2    D(2,1,6,10)           175.1118         estimate D2E/DX2                !
 ! D3    D(3,1,6,4)            106.669          estimate D2E/DX2                !
 ! D4    D(3,1,6,10)           -64.7344         estimate D2E/DX2                !
 ! D5    D(7,1,6,4)           -132.6736         estimate D2E/DX2                !
 ! D6    D(7,1,6,10)            55.923          estimate D2E/DX2                !
 ! D7    D(5,4,6,1)            -63.89           estimate D2E/DX2                !
 ! D8    D(5,4,6,10)           107.4215         estimate D2E/DX2                !
 ! D9    D(8,4,6,1)            176.0861         estimate D2E/DX2                !
 ! D10   D(8,4,6,10)           -12.6024         estimate D2E/DX2                !
 ! D11   D(9,4,6,1)             56.7938         estimate D2E/DX2                !
 ! D12   D(9,4,6,10)          -131.8947         estimate D2E/DX2                !
 ! D13   D(1,6,10,11)          178.6481         estimate D2E/DX2                !
 ! D14   D(1,6,10,12)           -1.819          estimate D2E/DX2                !
 ! D15   D(4,6,10,11)            7.5364         estimate D2E/DX2                !
 ! D16   D(4,6,10,12)         -172.9306         estimate D2E/DX2                !
 ! D17   D(6,10,12,13)        -178.8301         estimate D2E/DX2                !
 ! D18   D(6,10,12,14)           1.8149         estimate D2E/DX2                !
 ! D19   D(11,10,12,13)          0.6957         estimate D2E/DX2                !
 ! D20   D(11,10,12,14)       -178.6592         estimate D2E/DX2                !
 ! D21   D(10,12,13,15)          0.7511         estimate D2E/DX2                !
 ! D22   D(10,12,13,16)       -178.9788         estimate D2E/DX2                !
 ! D23   D(14,12,13,15)       -179.8903         estimate D2E/DX2                !
 ! D24   D(14,12,13,16)          0.3799         estimate D2E/DX2                !
 ! D25   D(12,13,16,17)        179.2973         estimate D2E/DX2                !
 ! D26   D(12,13,16,18)         -0.7587         estimate D2E/DX2                !
 ! D27   D(15,13,16,17)         -0.4368         estimate D2E/DX2                !
 ! D28   D(15,13,16,18)        179.5073         estimate D2E/DX2                !
 ! D29   D(13,16,17,19)          0.0215         estimate D2E/DX2                !
 ! D30   D(13,16,17,20)       -179.9582         estimate D2E/DX2                !
 ! D31   D(18,16,17,19)       -179.9253         estimate D2E/DX2                !
 ! D32   D(18,16,17,20)          0.095          estimate D2E/DX2                !
 ! D33   D(13,16,18,21)        179.9907         estimate D2E/DX2                !
 ! D34   D(13,16,18,22)         -0.0379         estimate D2E/DX2                !
 ! D35   D(17,16,18,21)         -0.0645         estimate D2E/DX2                !
 ! D36   D(17,16,18,22)        179.9069         estimate D2E/DX2                !
 ! D37   D(16,17,19,23)          0.2018         estimate D2E/DX2                !
 ! D38   D(20,17,19,23)       -179.818          estimate D2E/DX2                !
 ! D39   D(16,17,20,24)        179.9736         estimate D2E/DX2                !
 ! D40   D(16,17,20,25)         -0.0695         estimate D2E/DX2                !
 ! D41   D(19,17,20,24)         -0.0072         estimate D2E/DX2                !
 ! D42   D(19,17,20,25)        179.9497         estimate D2E/DX2                !
 ! D43   D(16,18,21,25)          0.0065         estimate D2E/DX2                !
 ! D44   D(16,18,21,27)        179.9847         estimate D2E/DX2                !
 ! D45   D(22,18,21,25)       -179.9653         estimate D2E/DX2                !
 ! D46   D(22,18,21,27)          0.0129         estimate D2E/DX2                !
 ! D47   D(17,20,25,21)          0.0098         estimate D2E/DX2                !
 ! D48   D(17,20,25,26)        179.9995         estimate D2E/DX2                !
 ! D49   D(24,20,25,21)        179.9651         estimate D2E/DX2                !
 ! D50   D(24,20,25,26)         -0.0453         estimate D2E/DX2                !
 ! D51   D(18,21,25,20)          0.022          estimate D2E/DX2                !
 ! D52   D(18,21,25,26)       -179.9676         estimate D2E/DX2                !
 ! D53   D(27,21,25,20)       -179.9561         estimate D2E/DX2                !
 ! D54   D(27,21,25,26)          0.0543         estimate D2E/DX2                !
 ! D55   D(18,21,27,28)       -118.1951         estimate D2E/DX2                !
 ! D56   D(25,21,27,28)         61.7828         estimate D2E/DX2                !
 ! D57   D(21,27,28,29)        -61.1755         estimate D2E/DX2                !
 ! D58   D(21,27,28,30)         61.1755         estimate D2E/DX2                !
 ! D59   D(21,27,28,31)        180.0            estimate D2E/DX2                !
 --------------------------------------------------------------------------------
 Trust Radius=3.00D-01 FncErr=1.00D-07 GrdErr=1.00D-06
 Number of steps in this run=    150 maximum allowed number of steps=    186.
 GradGradGradGradGradGradGradGradGradGradGradGradGradGradGradGradGradGrad

                          Input orientation:                          
 ---------------------------------------------------------------------
 Center     Atomic      Atomic             Coordinates (Angstroms)
 Number     Number       Type             X           Y           Z
 ---------------------------------------------------------------------
      1          6           0       -0.005944    0.258601    8.598337
      2          1           0        0.944130    0.715194    8.874902
      3          1           0       -0.786901    1.028050    8.622937
      4          6           0        1.266281    0.025251    6.478995
      5          1           0        1.265811    1.093067    6.231874
      6          7           0        0.112445   -0.331212    7.281213
      7          1           0       -0.249914   -0.508263    9.339524
      8          1           0        1.255768   -0.544225    5.549928
      9          1           0        2.190355   -0.207852    7.015529
     10          6           0       -0.903771   -1.040262    6.763835
     11          1           0       -0.743468   -1.429398    5.762419
     12          6           0       -2.092605   -1.323564    7.362212
     13          6           0       -3.051698   -2.132606    6.634340
     14          1           0       -2.324738   -0.949962    8.347376
     15          8           0       -2.783806   -2.565468    5.498990
     16          6           0       -4.373429   -2.450864    7.235120
     17          6           0       -5.298316   -3.229757    6.498906
     18          6           0       -4.754023   -2.012473    8.513208
     19          8           0       -5.036622   -3.697238    5.277832
     20          6           0       -6.548126   -3.536813    7.052064
     21          6           0       -5.986491   -2.318183    9.054286
     22          1           0       -4.068433   -1.416374    9.101783
     23          1           0       -4.125648   -3.391038    5.053391
     24          1           0       -7.230757   -4.134604    6.460005
     25          6           0       -6.885648   -3.087101    8.311090
     26          1           0       -7.857526   -3.333780    8.724744
     27          8           0       -6.339247   -1.849647   10.369443
     28          6           0       -6.608713   -2.813493   11.374076
     29          1           0       -7.462260   -3.450312   11.107744
     30          1           0       -5.736454   -3.450312   11.570646
     31          1           0       -6.850670   -2.249544   12.276149
 ---------------------------------------------------------------------
                    Distance matrix (angstroms):
                    1          2          3          4          5
     1  C    0.000000
     2  H    1.089773   0.000000
     3  H    1.096609   1.777029   0.000000
     4  C    2.482865   2.513995   3.133313   0.000000
     5  H    2.813155   2.689212   3.151989   1.096038   0.000000
     6  N    1.448002   2.080026   2.111075   1.449813   2.111856
     7  H    1.094057   1.771570   1.778232   3.281175   3.810403
     8  H    3.395474   3.569132   4.010976   1.089761   1.773662
     9  H    2.747106   2.421231   3.602120   1.093672   1.778001
    10  C    2.420441   3.309527   2.783493   2.434251   3.088877
    11  H    3.381673   4.139422   3.771406   2.582359   3.258899
    12  C    2.895756   3.958096   2.970586   3.725787   4.289141
    13  C    4.341863   5.394138   4.367330   4.829640   5.404427
    14  H    2.626863   3.706282   2.520597   4.163809   4.641267
    15  O    5.029695   6.004751   5.163337   4.906673   5.506487
    16  C    5.317376   6.402284   5.185756   6.205578   6.735501
    17  C    6.677234   7.757327   6.556927   7.327306   7.864215
    18  C    5.263960   6.327712   4.999488   6.673410   7.147536
    19  O    7.209864   8.256989   7.181797   7.417972   7.973574
    20  C    7.719862   8.805464   7.516471   8.607071   9.119546
    21  C    6.527990   7.567500   6.198312   8.045279   8.496971
    22  H    4.422987   5.451683   4.119825   6.116901   6.556511
    23  H    6.546638   7.560935   6.589175   6.540357   7.110826
    24  H    8.721848   9.807194   8.535488   9.460677   9.978590
    25  C    7.655492   8.722428   7.363860   8.916123   9.393787
    26  H    8.635307   9.689473   8.308409   9.978493  10.442541
    27  O    6.905958   7.865090   6.493071   8.746135   9.144176
    28  C    7.793526   8.703042   7.497981   9.697207  10.183888
    29  H    8.697690   9.643880   8.413704  10.473408  10.981604
    30  H    7.445093   8.321579   7.296766   9.329670   9.908405
    31  H    8.165009   9.006501   7.801146  10.230669  10.657560
                    6          7          8          9         10
     6  N    0.000000
     7  H    2.097450   0.000000
     8  H    2.085644   4.077917   0.000000
     9  H    2.098456   3.383210   1.770476   0.000000
    10  C    1.342806   2.710115   2.526506   3.214012   0.000000
    11  H    2.060421   3.726629   2.196731   3.416105   1.086259
    12  C    2.419415   2.823117   3.886302   4.439454   1.360750
    13  C    3.698008   4.219775   4.717326   5.597241   2.413208
    14  H    2.731193   2.341869   4.561837   4.765565   2.129531
    15  O    4.068967   5.040080   4.517320   5.709687   2.731413
    16  C    4.961665   5.020517   6.177621   6.939927   3.774975
    17  C    6.187883   6.400156   7.146234   8.091910   4.916920
    18  C    5.294050   4.820005   6.859619   7.329672   4.339348
    19  O    6.469664   7.041270   7.043415   8.211249   5.133048
    20  C    7.395376   7.353371   8.491923   9.351169   6.178559
    21  C    6.654988   6.022083   8.238796   8.687395   5.719553
    22  H    4.687408   3.932210   6.459368   6.707116   3.952537
    23  H    5.682179   6.457758   6.108235   7.339929   4.339615
    24  H    8.310402   8.377001   9.259599  10.221807   7.049682
    25  C    7.591369   7.193125   8.965093   9.609494   6.508948
    26  H    8.638266   8.138628  10.045556  10.660805   7.580244
    27  O    7.312123   6.319812   9.089340   9.311194   6.572664
    28  C    8.251498   7.063130  10.045912  10.159227   7.546193
    29  H    9.041420   7.987502  10.739584  10.974185   8.227495
    30  H    7.895419   6.613296   9.673963   9.700358   7.229702
    31  H    8.781478   7.431407  10.670731  10.657522   8.198389
                   11         12         13         14         15
    11  H    0.000000
    12  C    2.095402   0.000000
    13  C    2.565672   1.450588   0.000000
    14  H    3.067943   1.078894   2.204906   0.000000
    15  O    2.350113   2.343434   1.244249   3.306646   0.000000
    16  C    4.048315   2.547374   1.486337   2.772536   2.356731
    17  C    4.952812   3.828244   2.503872   4.178094   2.786373
    18  C    4.898098   2.980358   2.538206   2.656662   3.643222
    19  O    4.879456   4.318125   2.868468   4.931931   2.530809
    20  C    6.308600   4.984609   3.790950   5.119242   4.186365
    21  C    6.254248   4.360588   3.808358   3.972428   4.791500
    22  H    4.712421   2.634126   2.763153   1.956308   3.993845
    23  H    3.973650   3.706530   2.288322   4.477998   1.637273
    24  H    7.063263   5.925920   4.637124   6.145985   4.812599
    25  C    6.853472   5.194583   4.292054   5.036922   5.000511
    26  H    7.938001   6.255540   5.376671   6.036285   6.061223
    27  O    7.260442   5.230121   4.983878   4.584154   6.072468
    28  C    8.234532   6.221750   5.964986   5.566516   7.014846
    29  H    8.820361   6.883695   6.418781   6.345511   7.357242
    30  H    7.921458   5.959162   5.771601   5.317991   6.809265
    31  H    8.966562   6.902420   6.802637   6.132555   7.910062
                   16         17         18         19         20
    16  C    0.000000
    17  C    1.415663   0.000000
    18  C    1.403762   2.415667   0.000000
    19  O    2.413348   1.333433   3.658682   0.000000
    20  C    2.437643   1.400818   2.770805   2.336296   0.000000
    21  C    2.434941   2.799021   1.380290   4.131059   2.410267
    22  H    2.155835   3.402343   1.082492   4.556570   3.853114
    23  H    2.388569   1.868335   3.776987   0.986917   3.143938
    24  H    3.405893   2.134148   3.853997   2.530425   1.083454
    25  C    2.806021   2.413293   2.395726   3.604417   1.378879
    26  H    3.890688   3.393336   3.379694   4.468870   2.133919
    27  O    3.748317   4.239021   2.446437   5.570900   3.727621
    28  C    4.717940   5.065343   3.502296   6.357411   4.382540
    29  H    5.053414   5.096341   4.016659   6.319222   4.158325
    30  H    4.653334   5.095405   3.518590   6.336422   4.591718
    31  H    5.620430   6.061944   4.314146   7.373129   5.388846
                   21         22         23         24         25
    21  C    0.000000
    22  H    2.120015   0.000000
    23  H    4.541026   4.504670   0.000000
    24  H    3.402628   4.936401   3.489005   0.000000
    25  C    1.397161   3.369455   4.280488   2.154734   0.000000
    26  H    2.154253   4.263312   5.235363   2.482580   1.084669
    27  O    1.440000   2.636528   5.961234   4.615141   2.463060
    28  C    2.452329   3.683515   6.815441   5.126438   3.087627
    29  H    2.770614   4.436084   6.913153   4.703544   2.878486
    30  H    2.770614   3.607559   6.713629   5.368412   3.475237
    31  H    3.336453   4.302513   7.803652   6.125802   4.052705
                   26         27         28         29         30
    26  H    0.000000
    27  O    2.685676   0.000000
    28  C    2.974760   1.418062   0.000000
    29  H    2.418368   2.090066   1.097731   0.000000
    30  H    3.551293   2.090066   1.097731   1.786808   0.000000
    31  H    3.847311   2.014200   1.091017   1.783551   1.783551
                   31
    31  H    0.000000
 Stoichiometry    C12H15NO3
 Framework group  C1[X(C12H15NO3)]
 Deg. of freedom    87
 Full point group                 C1      NOp   1
 Largest Abelian subgroup         C1      NOp   1
 Largest concise Abelian subgroup C1      NOp   1
                         Standard orientation:                         
 ---------------------------------------------------------------------
 Center     Atomic      Atomic             Coordinates (Angstroms)
 Number     Number       Type             X           Y           Z
 ---------------------------------------------------------------------
      1          6           0       -3.776535   -2.111026   -0.084384
      2          1           0       -4.717831   -2.651182    0.014608
      3          1           0       -3.337154   -2.345164   -1.061459
      4          6           0       -5.395972   -0.230494   -0.009275
      5          1           0       -5.834194   -0.422808   -0.995316
      6          7           0       -4.022877   -0.691140    0.056855
      7          1           0       -3.093948   -2.459597    0.696343
      8          1           0       -5.431506    0.841900    0.181218
      9          1           0       -6.004188   -0.735048    0.746779
     10          6           0       -2.997081    0.175292    0.069684
     11          1           0       -3.268328    1.223567    0.156292
     12          6           0       -1.671714   -0.123867   -0.004801
     13          6           0       -0.717629    0.967346    0.051616
     14          1           0       -1.334719   -1.142989   -0.113600
     15          8           0       -1.105524    2.142691    0.179119
     16          6           0        0.740092    0.694911   -0.048509
     17          6           0        1.650678    1.778017   -0.005903
     18          6           0        1.264914   -0.600003   -0.183814
     19          8           0        1.257932    3.045893    0.121712
     20          6           0        3.027293    1.536433   -0.100031
     21          6           0        2.622289   -0.833073   -0.275529
     22          1           0        0.594635   -1.449325   -0.217977
     23          1           0        0.272696    3.026525    0.175945
     24          1           0        3.694588    2.389258   -0.064265
     25          6           0        3.504414    0.249554   -0.232721
     26          1           0        4.573329    0.079846   -0.304332
     27          8           0        3.121278   -2.176824   -0.413170
     28          6           0        3.964985   -2.685898    0.606585
     29          1           0        4.885251   -2.095602    0.704944
     30          1           0        3.455251   -2.716079    1.578322
     31          1           0        4.222357   -3.702541    0.305727
 ---------------------------------------------------------------------
 Rotational constants (GHZ):      0.8098387      0.2599631      0.1993791
 Standard basis: 6-311++G(d,p) (5D, 7F)
 There are   473 symmetry adapted cartesian basis functions of A   symmetry.
 There are   457 symmetry adapted basis functions of A   symmetry.
   457 basis functions,   711 primitive gaussians,   473 cartesian basis functions
    59 alpha electrons       59 beta electrons
       nuclear repulsion energy      1050.1908757820 Hartrees.
 NAtoms=   31 NActive=   31 NUniq=   31 SFac= 1.00D+00 NAtFMM=   60 NAOKFM=F Big=F
 Integral buffers will be    131072 words long.
 Raffenetti 1 integral format.
 Two-electron integral symmetry is turned on.
 Nuclear repulsion after empirical dispersion term =     1050.1731578244 Hartrees.
 One-electron integrals computed using PRISM.
 NBasis=   457 RedAO= T EigKep=  1.42D-06  NBF=   457
 NBsUse=   454 1.00D-06 EigRej=  6.57D-07 NBFU=   454
 ExpMin= 3.60D-02 ExpMax= 8.59D+03 ExpMxC= 1.30D+03 IAcc=3 IRadAn=         5 AccDes= 0.00D+00
 Harris functional with IExCor= 4639 and IRadAn=       5 diagonalized for initial guess.
 HarFok:  IExCor= 4639 AccDes= 0.00D+00 IRadAn=         5 IDoV= 1 UseB2=F ITyADJ=14
 ICtDFT=  3500011 ScaDFX=  1.000000  1.000000  1.000000  1.000000
 FoFCou: FMM=F IPFlag=           0 FMFlag=      100000 FMFlg1=           0
         NFxFlg=           0 DoJE=T BraDBF=F KetDBF=T FulRan=T
         wScrn=  0.000000 ICntrl=     500 IOpCl=  0 I1Cent=   200000004 NGrid=           0
         NMat0=    1 NMatS0=      1 NMatT0=    0 NMatD0=    1 NMtDS0=    0 NMtDT0=    0
 Petite list used in FoFCou.
 Requested convergence on RMS density matrix=1.00D-08 within 128 cycles.
 Requested convergence on MAX density matrix=1.00D-06.
 Requested convergence on             energy=1.00D-06.
 No special actions if energy rises.
 SCF Done:  E(RwB97XD) =  -746.663287945     A.U. after   17 cycles
            NFock= 17  Conv=0.51D-08     -V/T= 2.0041
 DoSCS=F DFT=T ScalE2(SS,OS)=  1.000000  1.000000
 ExpMin= 3.60D-02 ExpMax= 8.59D+03 ExpMxC= 1.30D+03 IAcc=3 IRadAn=         5 AccDes= 0.00D+00
 HarFok:  IExCor=  205 AccDes= 0.00D+00 IRadAn=         5 IDoV=-2 UseB2=F ITyADJ=14
 ICtDFT= 12500011 ScaDFX=  1.000000  1.000000  1.000000  1.000000
 Range of M.O.s used for correlation:    17   454
 NBasis=   457 NAE=    59 NBE=    59 NFC=    16 NFV=     0
 NROrb=    438 NOA=    43 NOB=    43 NVA=   395 NVB=   395

 **** Warning!!: The largest alpha MO coefficient is  0.15526714D+03

 Would need an additional         31031300000 words for in-memory AO integral storage.
 Orbital symmetries:
       Occupied  (A) (A) (A) (A) (A) (A) (A) (A) (A) (A) (A) (A)
                 (A) (A) (A) (A) (A) (A) (A) (A) (A) (A) (A) (A)
                 (A) (A) (A) (A) (A) (A) (A) (A) (A) (A) (A) (A)
                 (A) (A) (A) (A) (A) (A) (A) (A) (A) (A) (A) (A)
                 (A) (A) (A) (A) (A) (A) (A) (A) (A) (A) (A)
       Virtual   (A) (A) (A) (A) (A) (A) (A) (A) (A) (A) (A) (A)
                 (A) (A) (A) (A) (A) (A) (A) (A) (A) (A) (A) (A)
                 (A) (A) (A) (A) (A) (A) (A) (A) (A) (A) (A) (A)
                 (A) (A) (A) (A) (A) (A) (A) (A) (A) (A) (A) (A)
                 (A) (A) (A) (A) (A) (A) (A) (A) (A) (A) (A) (A)
                 (A) (A) (A) (A) (A) (A) (A) (A) (A) (A) (A) (A)
                 (A) (A) (A) (A) (A) (A) (A) (A) (A) (A) (A) (A)
                 (A) (A) (A) (A) (A) (A) (A) (A) (A) (A) (A) (A)
                 (A) (A) (A) (A) (A) (A) (A) (A) (A) (A) (A) (A)
                 (A) (A) (A) (A) (A) (A) (A) (A) (A) (A) (A) (A)
                 (A) (A) (A) (A) (A) (A) (A) (A) (A) (A) (A) (A)
                 (A) (A) (A) (A) (A) (A) (A) (A) (A) (A) (A) (A)
                 (A) (A) (A) (A) (A) (A) (A) (A) (A) (A) (A) (A)
                 (A) (A) (A) (A) (A) (A) (A) (A) (A) (A) (A) (A)
                 (A) (A) (A) (A) (A) (A) (A) (A) (A) (A) (A) (A)
                 (A) (A) (A) (A) (A) (A) (A) (A) (A) (A) (A) (A)
                 (A) (A) (A) (A) (A) (A) (A) (A) (A) (A) (A) (A)
                 (A) (A) (A) (A) (A) (A) (A) (A) (A) (A) (A) (A)
                 (A) (A) (A) (A) (A) (A) (A) (A) (A) (A) (A) (A)
                 (A) (A) (A) (A) (A) (A) (A) (A) (A) (A) (A) (A)
                 (A) (A) (A) (A) (A) (A) (A) (A) (A) (A) (A) (A)
                 (A) (A) (A) (A) (A) (A) (A) (A) (A) (A) (A) (A)
                 (A) (A) (A) (A) (A) (A) (A) (A) (A) (A) (A) (A)
                 (A) (A) (A) (A) (A) (A) (A) (A) (A) (A) (A) (A)
                 (A) (A) (A) (A) (A) (A) (A) (A) (A) (A) (A) (A)
                 (A) (A) (A) (A) (A) (A) (A) (A) (A) (A) (A) (A)
                 (A) (A) (A) (A) (A) (A) (A) (A) (A) (A) (A) (A)
                 (A) (A) (A) (A) (A) (A) (A) (A) (A) (A) (A) (A)
                 (A) (A) (A) (A) (A) (A) (A) (A) (A) (A) (A) (A)
                 (A) (A) (A) (A) (A) (A) (A) (A) (A) (A) (A) (A)
                 (A) (A) (A) (A) (A) (A) (A) (A) (A) (A) (A) (A)
                 (A) (A) (A) (A) (A) (A) (A) (A) (A) (A) (A) (A)
                 (A) (A) (A) (A) (A) (A) (A) (A) (A) (A) (A)
     8 initial guesses have been made.
 Convergence on wavefunction:    0.000001000000000
 Iteration     1 Dimension     8 NMult     0 NNew      8
 CISAX will form     8 AO SS matrices at one time.
 Iteration     2 Dimension    12 NMult     8 NNew      4
 Iteration     3 Dimension    16 NMult    12 NNew      4
 Iteration     4 Dimension    20 NMult    16 NNew      4
 Iteration     5 Dimension    24 NMult    20 NNew      4
 Iteration     6 Dimension    28 NMult    24 NNew      4
 Iteration     7 Dimension    32 NMult    28 NNew      4
 Iteration     8 Dimension    36 NMult    32 NNew      4
 Iteration     9 Dimension    40 NMult    36 NNew      4
 Iteration    10 Dimension    44 NMult    40 NNew      4
 Iteration    11 Dimension    48 NMult    44 NNew      4
 Iteration    12 Dimension    52 NMult    48 NNew      4
 Iteration    13 Dimension    56 NMult    52 NNew      4
 ***********************************************************************
 Excited states from <AA,BB:AA,BB> singles matrix:
 ***********************************************************************
 
 Ground to excited state transition densities written to RWF  633
 Ground to excited state transition electric dipole moments (Au):
       state          X           Y           Z        Dip. S.      Osc.
         1         1.8718      0.7134      0.0017      4.0125      0.3935
 Ground to excited state transition velocity dipole moments (Au):
       state          X           Y           Z        Dip. S.      Osc.
         1        -0.2735     -0.1096      0.0000      0.0868      0.3933
 Ground to excited state transition magnetic dipole moments (Au):
       state          X           Y           Z
         1        -0.0343      0.0522     -0.0877
 Ground to excited state transition velocity quadrupole moments (Au):
       state          XX          YY          ZZ          XY          XZ          YZ
         1         0.4291     -0.3550      0.0398     -0.1528      0.0399      0.0061
 <0|del|b> * <b|rxdel|0> + <0|del|b> * <b|delr+rdel|0>
 Rotatory Strengths (R) in cgs (10**-40 erg-esu-cm/Gauss)
       state          XX          YY          ZZ    R(velocity)    E-M Angle
         1        -3.2643     18.5400      2.2609      5.8456       83.40
 1/2[<0|r|b>*<b|rxdel|0> + (<0|rxdel|b>*<b|r|0>)*]
 Rotatory Strengths (R) in cgs (10**-40 erg-esu-cm/Gauss)
       state          XX          YY          ZZ     R(length)
         1        45.3639    -26.3476      0.1064      6.3742
  1/2[<0|del|b>*<b|r|0> + (<0|r|b>*<b|del|0>)*] (Au)
       state          X           Y           Z        Dip. S.   Osc.(frdel)
         1        -0.5118     -0.0782      0.0000      0.5900      0.3934

 Excitation energies and oscillator strengths:
 
 Excited State   1:      Singlet-A      4.0029 eV  309.74 nm  f=0.3935  <S**2>=0.000
      59 -> 60         0.67570
      59 -> 64        -0.10709
 This state for optimization and/or second-order correction.
 Total Energy, E(TD-HF/TD-KS) =  -746.516185546    
 Copying the excited state density for this state as the 1-particle RhoCI density.
 SavETr:  write IOETrn=   770 NScale= 10 NData=  16 NLR=1 NState=    1 LETran=      28.
          IDoAtm=1111111111111111111111111111111
          Differentiating once with respect to electric field.
                with respect to dipole field.
          Differentiating once with respect to nuclear coordinates.
          There are     1 degrees of freedom in the 1st order CPHF.  IDoFFX=0 NUNeed=     1.
 LinEq1:  Iter=  0 NonCon=     1 RMS=4.19D-03 Max=2.63D-01 NDo=     1
 AX will form     1 AO Fock derivatives at one time.
 LinEq1:  Iter=  1 NonCon=     1 RMS=1.56D-03 Max=1.02D-01 NDo=     1
 LinEq1:  Iter=  2 NonCon=     1 RMS=1.05D-03 Max=6.93D-02 NDo=     1
 LinEq1:  Iter=  3 NonCon=     1 RMS=3.88D-04 Max=1.93D-02 NDo=     1
 LinEq1:  Iter=  4 NonCon=     1 RMS=2.53D-04 Max=1.11D-02 NDo=     1
 LinEq1:  Iter=  5 NonCon=     1 RMS=1.36D-04 Max=7.36D-03 NDo=     1
 LinEq1:  Iter=  6 NonCon=     1 RMS=7.34D-05 Max=2.40D-03 NDo=     1
 LinEq1:  Iter=  7 NonCon=     1 RMS=2.69D-05 Max=7.45D-04 NDo=     1
 LinEq1:  Iter=  8 NonCon=     1 RMS=1.44D-05 Max=4.23D-04 NDo=     1
 LinEq1:  Iter=  9 NonCon=     1 RMS=6.85D-06 Max=1.44D-04 NDo=     1
 LinEq1:  Iter= 10 NonCon=     1 RMS=2.77D-06 Max=8.94D-05 NDo=     1
 LinEq1:  Iter= 11 NonCon=     1 RMS=1.20D-06 Max=3.15D-05 NDo=     1
 LinEq1:  Iter= 12 NonCon=     1 RMS=5.39D-07 Max=2.24D-05 NDo=     1
 LinEq1:  Iter= 13 NonCon=     1 RMS=2.55D-07 Max=7.96D-06 NDo=     1
 LinEq1:  Iter= 14 NonCon=     1 RMS=1.01D-07 Max=3.17D-06 NDo=     1
 LinEq1:  Iter= 15 NonCon=     1 RMS=4.71D-08 Max=1.70D-06 NDo=     1
 LinEq1:  Iter= 16 NonCon=     1 RMS=1.91D-08 Max=4.15D-07 NDo=     1
 LinEq1:  Iter= 17 NonCon=     1 RMS=9.88D-09 Max=1.83D-07 NDo=     1
 LinEq1:  Iter= 18 NonCon=     1 RMS=4.51D-09 Max=1.88D-07 NDo=     1
 LinEq1:  Iter= 19 NonCon=     1 RMS=1.96D-09 Max=8.23D-08 NDo=     1
 LinEq1:  Iter= 20 NonCon=     1 RMS=7.84D-10 Max=4.92D-08 NDo=     1
 LinEq1:  Iter= 21 NonCon=     1 RMS=3.18D-10 Max=1.98D-08 NDo=     1
 LinEq1:  Iter= 22 NonCon=     1 RMS=1.71D-10 Max=9.30D-09 NDo=     1
 LinEq1:  Iter= 23 NonCon=     1 RMS=7.79D-11 Max=5.08D-09 NDo=     1
 LinEq1:  Iter= 24 NonCon=     1 RMS=3.85D-11 Max=1.08D-09 NDo=     1
 LinEq1:  Iter= 25 NonCon=     0 RMS=1.66D-11 Max=6.02D-10 NDo=     1
 Linear equations converged to 1.000D-10 1.000D-09 after    25 iterations.
 End of Minotr F.D. properties file   721 does not exist.
 End of Minotr F.D. properties file   722 does not exist.
 End of Minotr F.D. properties file   788 does not exist.

 **********************************************************************

            Population analysis using the SCF density.

 **********************************************************************

 Orbital symmetries:
       Occupied  (A) (A) (A) (A) (A) (A) (A) (A) (A) (A) (A) (A)
                 (A) (A) (A) (A) (A) (A) (A) (A) (A) (A) (A) (A)
                 (A) (A) (A) (A) (A) (A) (A) (A) (A) (A) (A) (A)
                 (A) (A) (A) (A) (A) (A) (A) (A) (A) (A) (A) (A)
                 (A) (A) (A) (A) (A) (A) (A) (A) (A) (A) (A)
       Virtual   (A) (A) (A) (A) (A) (A) (A) (A) (A) (A) (A) (A)
                 (A) (A) (A) (A) (A) (A) (A) (A) (A) (A) (A) (A)
                 (A) (A) (A) (A) (A) (A) (A) (A) (A) (A) (A) (A)
                 (A) (A) (A) (A) (A) (A) (A) (A) (A) (A) (A) (A)
                 (A) (A) (A) (A) (A) (A) (A) (A) (A) (A) (A) (A)
                 (A) (A) (A) (A) (A) (A) (A) (A) (A) (A) (A) (A)
                 (A) (A) (A) (A) (A) (A) (A) (A) (A) (A) (A) (A)
                 (A) (A) (A) (A) (A) (A) (A) (A) (A) (A) (A) (A)
                 (A) (A) (A) (A) (A) (A) (A) (A) (A) (A) (A) (A)
                 (A) (A) (A) (A) (A) (A) (A) (A) (A) (A) (A) (A)
                 (A) (A) (A) (A) (A) (A) (A) (A) (A) (A) (A) (A)
                 (A) (A) (A) (A) (A) (A) (A) (A) (A) (A) (A) (A)
                 (A) (A) (A) (A) (A) (A) (A) (A) (A) (A) (A) (A)
                 (A) (A) (A) (A) (A) (A) (A) (A) (A) (A) (A) (A)
                 (A) (A) (A) (A) (A) (A) (A) (A) (A) (A) (A) (A)
                 (A) (A) (A) (A) (A) (A) (A) (A) (A) (A) (A) (A)
                 (A) (A) (A) (A) (A) (A) (A) (A) (A) (A) (A) (A)
                 (A) (A) (A) (A) (A) (A) (A) (A) (A) (A) (A) (A)
                 (A) (A) (A) (A) (A) (A) (A) (A) (A) (A) (A) (A)
                 (A) (A) (A) (A) (A) (A) (A) (A) (A) (A) (A) (A)
                 (A) (A) (A) (A) (A) (A) (A) (A) (A) (A) (A) (A)
                 (A) (A) (A) (A) (A) (A) (A) (A) (A) (A) (A) (A)
                 (A) (A) (A) (A) (A) (A) (A) (A) (A) (A) (A) (A)
                 (A) (A) (A) (A) (A) (A) (A) (A) (A) (A) (A) (A)
                 (A) (A) (A) (A) (A) (A) (A) (A) (A) (A) (A) (A)
                 (A) (A) (A) (A) (A) (A) (A) (A) (A) (A) (A) (A)
                 (A) (A) (A) (A) (A) (A) (A) (A) (A) (A) (A) (A)
                 (A) (A) (A) (A) (A) (A) (A) (A) (A) (A) (A) (A)
                 (A) (A) (A) (A) (A) (A) (A) (A) (A) (A) (A) (A)
                 (A) (A) (A) (A) (A) (A) (A) (A) (A) (A) (A) (A)
                 (A) (A) (A) (A) (A) (A) (A) (A) (A) (A) (A) (A)
                 (A) (A) (A) (A) (A) (A) (A) (A) (A) (A) (A) (A)
                 (A) (A) (A) (A) (A) (A) (A) (A) (A) (A) (A)
 The electronic state is 1-A.
 Alpha  occ. eigenvalues --  -19.25949 -19.25155 -19.22319 -14.49055 -10.37451
 Alpha  occ. eigenvalues --  -10.35133 -10.34587 -10.33985 -10.33940 -10.33627
 Alpha  occ. eigenvalues --  -10.32863 -10.29610 -10.29598 -10.29544 -10.28354
 Alpha  occ. eigenvalues --  -10.27365  -1.16266  -1.13495  -1.12751  -1.08800
 Alpha  occ. eigenvalues --   -0.95915  -0.89473  -0.86675  -0.85260  -0.84539
 Alpha  occ. eigenvalues --   -0.80177  -0.77816  -0.74274  -0.70377  -0.68194
 Alpha  occ. eigenvalues --   -0.65189  -0.63146  -0.61212  -0.59910  -0.58505
 Alpha  occ. eigenvalues --   -0.58482  -0.57446  -0.54347  -0.54094  -0.52650
 Alpha  occ. eigenvalues --   -0.52145  -0.51834  -0.51613  -0.51320  -0.50560
 Alpha  occ. eigenvalues --   -0.49657  -0.49506  -0.47192  -0.46978  -0.46582
 Alpha  occ. eigenvalues --   -0.44074  -0.43015  -0.41678  -0.40312  -0.36237
 Alpha  occ. eigenvalues --   -0.33929  -0.33833  -0.29817  -0.28325
 Alpha virt. eigenvalues --    0.00092   0.02781   0.04273   0.04791   0.05649
 Alpha virt. eigenvalues --    0.05868   0.05931   0.06180   0.07445   0.07558
 Alpha virt. eigenvalues --    0.07939   0.08213   0.08550   0.08852   0.09196
 Alpha virt. eigenvalues --    0.09880   0.11221   0.11777   0.12263   0.12446
 Alpha virt. eigenvalues --    0.13053   0.13314   0.14163   0.14522   0.14795
 Alpha virt. eigenvalues --    0.15043   0.15130   0.15619   0.15852   0.16292
 Alpha virt. eigenvalues --    0.16789   0.17266   0.17564   0.17726   0.18203
 Alpha virt. eigenvalues --    0.18414   0.18530   0.19241   0.19350   0.19590
 Alpha virt. eigenvalues --    0.20348   0.20499   0.20634   0.21088   0.21466
 Alpha virt. eigenvalues --    0.21872   0.22342   0.22608   0.22900   0.23349
 Alpha virt. eigenvalues --    0.23926   0.24454   0.24774   0.25315   0.25506
 Alpha virt. eigenvalues --    0.25923   0.26264   0.26851   0.27163   0.27416
 Alpha virt. eigenvalues --    0.27802   0.28136   0.28295   0.28583   0.29306
 Alpha virt. eigenvalues --    0.29578   0.30628   0.30953   0.31626   0.31948
 Alpha virt. eigenvalues --    0.32644   0.32911   0.33355   0.33633   0.34174
 Alpha virt. eigenvalues --    0.34813   0.35027   0.35455   0.35767   0.36071
 Alpha virt. eigenvalues --    0.36613   0.37227   0.37430   0.38116   0.38861
 Alpha virt. eigenvalues --    0.39129   0.39439   0.40026   0.40204   0.40436
 Alpha virt. eigenvalues --    0.41036   0.41544   0.42193   0.43105   0.43499
 Alpha virt. eigenvalues --    0.43721   0.44595   0.45065   0.45978   0.46605
 Alpha virt. eigenvalues --    0.47848   0.48453   0.48767   0.49817   0.51138
 Alpha virt. eigenvalues --    0.51222   0.51835   0.52842   0.53508   0.55331
 Alpha virt. eigenvalues --    0.55943   0.56778   0.57792   0.59025   0.61120
 Alpha virt. eigenvalues --    0.62357   0.62803   0.64017   0.64081   0.64324
 Alpha virt. eigenvalues --    0.66093   0.66361   0.66927   0.67240   0.68324
 Alpha virt. eigenvalues --    0.69425   0.70094   0.70310   0.70883   0.71066
 Alpha virt. eigenvalues --    0.71795   0.71996   0.72348   0.72794   0.73406
 Alpha virt. eigenvalues --    0.74081   0.75488   0.75742   0.76360   0.76939
 Alpha virt. eigenvalues --    0.78478   0.78983   0.79440   0.80215   0.80390
 Alpha virt. eigenvalues --    0.81194   0.82627   0.82820   0.84407   0.86140
 Alpha virt. eigenvalues --    0.86622   0.88054   0.88147   0.89754   0.93163
 Alpha virt. eigenvalues --    0.94207   0.95374   0.95651   0.96052   0.97398
 Alpha virt. eigenvalues --    0.98986   0.99518   1.00161   1.00704   1.02245
 Alpha virt. eigenvalues --    1.03149   1.03760   1.04881   1.05503   1.08159
 Alpha virt. eigenvalues --    1.08530   1.11254   1.11284   1.11463   1.12575
 Alpha virt. eigenvalues --    1.13691   1.14460   1.15103   1.16315   1.16558
 Alpha virt. eigenvalues --    1.17850   1.18332   1.19582   1.20073   1.22413
 Alpha virt. eigenvalues --    1.23034   1.23837   1.27998   1.28908   1.32011
 Alpha virt. eigenvalues --    1.33248   1.33576   1.34583   1.36705   1.38323
 Alpha virt. eigenvalues --    1.38724   1.41655   1.42839   1.44235   1.45519
 Alpha virt. eigenvalues --    1.47259   1.48974   1.50714   1.51972   1.53016
 Alpha virt. eigenvalues --    1.53497   1.53698   1.56128   1.58094   1.58972
 Alpha virt. eigenvalues --    1.60464   1.61663   1.61899   1.62975   1.64486
 Alpha virt. eigenvalues --    1.65207   1.66007   1.66478   1.67534   1.67744
 Alpha virt. eigenvalues --    1.68265   1.69674   1.71530   1.71690   1.73125
 Alpha virt. eigenvalues --    1.74378   1.75968   1.77077   1.77757   1.78216
 Alpha virt. eigenvalues --    1.79636   1.80732   1.81237   1.82133   1.82917
 Alpha virt. eigenvalues --    1.84334   1.84496   1.85989   1.86650   1.87704
 Alpha virt. eigenvalues --    1.89798   1.91572   1.93783   1.94760   1.97176
 Alpha virt. eigenvalues --    1.97447   2.00114   2.02010   2.03405   2.04389
 Alpha virt. eigenvalues --    2.05019   2.05316   2.07124   2.07380   2.08292
 Alpha virt. eigenvalues --    2.10542   2.11224   2.12450   2.14212   2.15490
 Alpha virt. eigenvalues --    2.17666   2.19070   2.20031   2.21005   2.24237
 Alpha virt. eigenvalues --    2.24390   2.24847   2.26328   2.27571   2.30045
 Alpha virt. eigenvalues --    2.31348   2.32154   2.35757   2.39909   2.42006
 Alpha virt. eigenvalues --    2.42541   2.46923   2.47439   2.50859   2.51035
 Alpha virt. eigenvalues --    2.52507   2.53602   2.55262   2.56296   2.57564
 Alpha virt. eigenvalues --    2.59043   2.60615   2.62132   2.62231   2.64222
 Alpha virt. eigenvalues --    2.66291   2.66850   2.69691   2.70733   2.71429
 Alpha virt. eigenvalues --    2.72845   2.74534   2.74904   2.76431   2.77435
 Alpha virt. eigenvalues --    2.79066   2.80395   2.82610   2.83497   2.84656
 Alpha virt. eigenvalues --    2.85982   2.86816   2.87960   2.88225   2.90594
 Alpha virt. eigenvalues --    2.91161   2.94277   2.95171   2.95502   2.96089
 Alpha virt. eigenvalues --    2.99066   3.01281   3.02555   3.04780   3.07496
 Alpha virt. eigenvalues --    3.09481   3.11113   3.11790   3.13949   3.17487
 Alpha virt. eigenvalues --    3.19666   3.20840   3.22740   3.23627   3.25470
 Alpha virt. eigenvalues --    3.27239   3.30283   3.31827   3.32076   3.35088
 Alpha virt. eigenvalues --    3.38044   3.40162   3.43349   3.49244   3.53044
 Alpha virt. eigenvalues --    3.57687   3.61934   3.63914   3.67195   3.69059
 Alpha virt. eigenvalues --    3.72074   3.75559   3.76776   3.80430   3.81700
 Alpha virt. eigenvalues --    3.83552   3.85059   3.88433   3.90072   3.92105
 Alpha virt. eigenvalues --    3.93246   3.94908   4.04262   4.08980   4.12482
 Alpha virt. eigenvalues --    4.13935   4.18671   4.26184   4.29898   4.31243
 Alpha virt. eigenvalues --    4.40348   4.64761   4.95226   4.98698   5.14527
 Alpha virt. eigenvalues --    5.17976   5.19034   5.25880   5.43948   5.48253
 Alpha virt. eigenvalues --    5.63006   5.83061   5.91308   5.95527  23.71866
 Alpha virt. eigenvalues --   23.94756  24.03506  24.03921  24.04772  24.04941
 Alpha virt. eigenvalues --   24.07216  24.09321  24.15755  24.24265  24.30421
 Alpha virt. eigenvalues --   24.32804  35.70581  50.08668  50.14600  50.20243
          Condensed to atoms (all electrons):
               1          2          3          4          5          6
     1  C    5.262863   0.386514   0.417744  -0.080539   0.013616   0.241203
     2  H    0.386514   0.489943  -0.018843   0.004994  -0.006797  -0.048581
     3  H    0.417744  -0.018843   0.524147  -0.007839   0.000892  -0.055179
     4  C   -0.080539   0.004994  -0.007839   5.190174   0.392199   0.273772
     5  H    0.013616  -0.006797   0.000892   0.392199   0.562303  -0.049290
     6  N    0.241203  -0.048581  -0.055179   0.273772  -0.049290   6.850931
     7  H    0.417876  -0.021699  -0.052092   0.010281   0.001859  -0.034007
     8  H   -0.003904   0.003444  -0.000559   0.413839  -0.030458  -0.090562
     9  H   -0.013590  -0.003296   0.002993   0.413097  -0.065174  -0.050709
    10  C    0.087635   0.013184  -0.012213   0.028343  -0.040110   0.271655
    11  H    0.010273  -0.001057  -0.002213  -0.043929   0.004594  -0.068784
    12  C    0.295996   0.037080   0.000178  -0.155577   0.023749  -0.309019
    13  C   -0.310412  -0.017978   0.016098  -0.130798   0.004644  -0.016962
    14  H    0.008541   0.001236  -0.014340   0.002996  -0.000165  -0.008058
    15  O   -0.001131   0.000120   0.000199   0.001419  -0.000151   0.004474
    16  C   -0.272629  -0.007768   0.001839   0.023295  -0.001343   0.012125
    17  C   -0.046012  -0.000196  -0.000654   0.000566  -0.000366   0.009321
    18  C    0.049385  -0.002397   0.007174  -0.031981   0.000677  -0.053533
    19  O   -0.000046  -0.000004   0.000043   0.000261   0.000006  -0.000142
    20  C    0.007188   0.000306  -0.000655  -0.001576   0.000038  -0.001542
    21  C   -0.024804  -0.001038   0.000038   0.004693  -0.000106   0.009235
    22  H    0.007823   0.000091   0.001416  -0.005755   0.000057  -0.017242
    23  H   -0.001155  -0.000091   0.000102  -0.000011   0.000002  -0.000248
    24  H    0.000122   0.000004  -0.000008  -0.000005   0.000001  -0.000048
    25  C   -0.013068  -0.000405  -0.000481   0.000543  -0.000019   0.004429
    26  H   -0.000181  -0.000007   0.000002   0.000009   0.000000   0.000031
    27  O   -0.000077  -0.000008  -0.000051  -0.000012   0.000000  -0.000048
    28  C   -0.000188  -0.000012   0.000036   0.000008   0.000000   0.000012
    29  H    0.000034   0.000001   0.000003  -0.000001   0.000000  -0.000006
    30  H   -0.000090  -0.000007   0.000050   0.000005   0.000000  -0.000005
    31  H    0.000000   0.000001  -0.000023   0.000002   0.000000   0.000013
               7          8          9         10         11         12
     1  C    0.417876  -0.003904  -0.013590   0.087635   0.010273   0.295996
     2  H   -0.021699   0.003444  -0.003296   0.013184  -0.001057   0.037080
     3  H   -0.052092  -0.000559   0.002993  -0.012213  -0.002213   0.000178
     4  C    0.010281   0.413839   0.413097   0.028343  -0.043929  -0.155577
     5  H    0.001859  -0.030458  -0.065174  -0.040110   0.004594   0.023749
     6  N   -0.034007  -0.090562  -0.050709   0.271655  -0.068784  -0.309019
     7  H    0.533278  -0.003105  -0.001316   0.029392   0.002910  -0.044975
     8  H   -0.003105   0.534064  -0.021665   0.062668  -0.009829  -0.013334
     9  H   -0.001316  -0.021665   0.562201  -0.004495   0.000572   0.006298
    10  C    0.029392   0.062668  -0.004495  13.587914   0.179028   1.942908
    11  H    0.002910  -0.009829   0.000572   0.179028   0.475788   0.180000
    12  C   -0.044975  -0.013334   0.006298   1.942908   0.180000  15.845368
    13  C   -0.027143   0.006996   0.000075  -4.758066   0.149417   1.665473
    14  H    0.013064  -0.001398   0.001132   0.398455  -0.008466   0.508274
    15  O    0.000609   0.000528   0.000062   0.099921   0.008526  -0.272802
    16  C   -0.005660   0.010582   0.001164  -1.876124  -0.100591  -6.219898
    17  C   -0.000896   0.004874  -0.000114  -1.300236  -0.088029  -4.648762
    18  C   -0.001059  -0.006321   0.000209  -2.960322   0.091372  -0.552836
    19  O    0.000015  -0.000080   0.000002   0.007294   0.000043  -0.032885
    20  C   -0.000621  -0.000088  -0.000001  -0.345204   0.000768   0.071902
    21  C    0.003349   0.000404  -0.000027   0.426242  -0.008722  -1.031482
    22  H   -0.004251  -0.000113  -0.000090  -0.382728   0.006994  -0.077138
    23  H   -0.000008   0.000068   0.000033  -0.016949   0.000613  -0.012916
    24  H   -0.000014  -0.000001   0.000000  -0.001890  -0.000088   0.010866
    25  C    0.000689   0.000223  -0.000004  -0.035586  -0.006822  -0.825980
    26  H    0.000023   0.000001   0.000000   0.000343  -0.000008  -0.009882
    27  O   -0.000062  -0.000001   0.000000  -0.001128  -0.000029   0.000485
    28  C   -0.000064  -0.000001   0.000000  -0.001453  -0.000016  -0.015260
    29  H   -0.000012   0.000000   0.000000  -0.000266  -0.000002   0.000692
    30  H    0.000014  -0.000001   0.000001  -0.000110   0.000008  -0.002568
    31  H   -0.000001   0.000000   0.000000   0.000637  -0.000001   0.002450
              13         14         15         16         17         18
     1  C   -0.310412   0.008541  -0.001131  -0.272629  -0.046012   0.049385
     2  H   -0.017978   0.001236   0.000120  -0.007768  -0.000196  -0.002397
     3  H    0.016098  -0.014340   0.000199   0.001839  -0.000654   0.007174
     4  C   -0.130798   0.002996   0.001419   0.023295   0.000566  -0.031981
     5  H    0.004644  -0.000165  -0.000151  -0.001343  -0.000366   0.000677
     6  N   -0.016962  -0.008058   0.004474   0.012125   0.009321  -0.053533
     7  H   -0.027143   0.013064   0.000609  -0.005660  -0.000896  -0.001059
     8  H    0.006996  -0.001398   0.000528   0.010582   0.004874  -0.006321
     9  H    0.000075   0.001132   0.000062   0.001164  -0.000114   0.000209
    10  C   -4.758066   0.398455   0.099921  -1.876124  -1.300236  -2.960322
    11  H    0.149417  -0.008466   0.008526  -0.100591  -0.088029   0.091372
    12  C    1.665473   0.508274  -0.272802  -6.219898  -4.648762  -0.552836
    13  C   15.735812  -0.142897   0.908474   0.754089  -5.136324   1.049960
    14  H   -0.142897   0.855664  -0.012654   0.260920   0.083868  -0.991778
    15  O    0.908474  -0.012654   8.134836  -0.145698  -0.160111  -0.236799
    16  C    0.754089   0.260920  -0.145698  23.867446   2.651910 -11.290098
    17  C   -5.136324   0.083868  -0.160111   2.651910  21.172552  -8.807101
    18  C    1.049960  -0.991778  -0.236799 -11.290098  -8.807101  32.106714
    19  O   -0.069052  -0.000921   0.001223   0.132200   0.326932   0.010892
    20  C   -0.332433  -0.051879  -0.067622  -3.437278  -0.212737   3.247952
    21  C   -1.252873  -0.020995   0.015480  -1.629743   1.067781   0.420115
    22  H    0.077899  -0.178881  -0.000253  -0.910542  -0.169537   2.241087
    23  H    0.019032  -0.005545   0.071013  -0.156875   0.013802   0.070569
    24  H    0.023213  -0.001074   0.000932  -0.106388  -0.157466   0.087623
    25  C   -1.607889   0.159563  -0.024382   2.218229   1.214384  -6.031274
    26  H   -0.010447   0.001463  -0.000224   0.158026   0.036709  -0.201901
    27  O   -0.003952   0.010911   0.000025   0.080441   0.031073  -0.141163
    28  C   -0.015381   0.000333   0.000061  -0.070380   0.035740  -0.060690
    29  H   -0.001651   0.000016  -0.000010  -0.020159  -0.000453  -0.001755
    30  H    0.007226  -0.001273   0.000039   0.042744   0.001151   0.064998
    31  H    0.001529   0.001512   0.000006   0.014618   0.000760  -0.026205
              19         20         21         22         23         24
     1  C   -0.000046   0.007188  -0.024804   0.007823  -0.001155   0.000122
     2  H   -0.000004   0.000306  -0.001038   0.000091  -0.000091   0.000004
     3  H    0.000043  -0.000655   0.000038   0.001416   0.000102  -0.000008
     4  C    0.000261  -0.001576   0.004693  -0.005755  -0.000011  -0.000005
     5  H    0.000006   0.000038  -0.000106   0.000057   0.000002   0.000001
     6  N   -0.000142  -0.001542   0.009235  -0.017242  -0.000248  -0.000048
     7  H    0.000015  -0.000621   0.003349  -0.004251  -0.000008  -0.000014
     8  H   -0.000080  -0.000088   0.000404  -0.000113   0.000068  -0.000001
     9  H    0.000002  -0.000001  -0.000027  -0.000090   0.000033   0.000000
    10  C    0.007294  -0.345204   0.426242  -0.382728  -0.016949  -0.001890
    11  H    0.000043   0.000768  -0.008722   0.006994   0.000613  -0.000088
    12  C   -0.032885   0.071902  -1.031482  -0.077138  -0.012916   0.010866
    13  C   -0.069052  -0.332433  -1.252873   0.077899   0.019032   0.023213
    14  H   -0.000921  -0.051879  -0.020995  -0.178881  -0.005545  -0.001074
    15  O    0.001223  -0.067622   0.015480  -0.000253   0.071013   0.000932
    16  C    0.132200  -3.437278  -1.629743  -0.910542  -0.156875  -0.106388
    17  C    0.326932  -0.212737   1.067781  -0.169537   0.013802  -0.157466
    18  C    0.010892   3.247952   0.420115   2.241087   0.070569   0.087623
    19  O    8.089760  -0.407454  -0.001973  -0.002296   0.260526  -0.027829
    20  C   -0.407454   8.990424   0.038892   0.210024   0.068753   0.561999
    21  C   -0.001973   0.038892  10.409642  -0.167622   0.025768   0.050011
    22  H   -0.002296   0.210024  -0.167622   0.772389   0.005900   0.005112
    23  H    0.260526   0.068753   0.025768   0.005900   0.302817   0.001831
    24  H   -0.027829   0.561999   0.050011   0.005112   0.001831   0.466548
    25  C    0.009756  -1.789925  -1.735780  -0.494835  -0.009727  -0.135680
    26  H    0.001584  -0.110044  -0.295480  -0.010248  -0.000806  -0.018092
    27  O    0.000331   0.023060   0.451803  -0.061111   0.000440   0.000180
    28  C    0.000325   0.012291  -0.099961   0.000890   0.000212  -0.000320
    29  H   -0.000186  -0.021426   0.060065   0.001252   0.000036   0.000970
    30  H    0.000101   0.014811  -0.111957  -0.002651  -0.000088  -0.000323
    31  H    0.000020  -0.003775   0.018768  -0.005325  -0.000030  -0.000011
              25         26         27         28         29         30
     1  C   -0.013068  -0.000181  -0.000077  -0.000188   0.000034  -0.000090
     2  H   -0.000405  -0.000007  -0.000008  -0.000012   0.000001  -0.000007
     3  H   -0.000481   0.000002  -0.000051   0.000036   0.000003   0.000050
     4  C    0.000543   0.000009  -0.000012   0.000008  -0.000001   0.000005
     5  H   -0.000019   0.000000   0.000000   0.000000   0.000000   0.000000
     6  N    0.004429   0.000031  -0.000048   0.000012  -0.000006  -0.000005
     7  H    0.000689   0.000023  -0.000062  -0.000064  -0.000012   0.000014
     8  H    0.000223   0.000001  -0.000001  -0.000001   0.000000  -0.000001
     9  H   -0.000004   0.000000   0.000000   0.000000   0.000000   0.000001
    10  C   -0.035586   0.000343  -0.001128  -0.001453  -0.000266  -0.000110
    11  H   -0.006822  -0.000008  -0.000029  -0.000016  -0.000002   0.000008
    12  C   -0.825980  -0.009882   0.000485  -0.015260   0.000692  -0.002568
    13  C   -1.607889  -0.010447  -0.003952  -0.015381  -0.001651   0.007226
    14  H    0.159563   0.001463   0.010911   0.000333   0.000016  -0.001273
    15  O   -0.024382  -0.000224   0.000025   0.000061  -0.000010   0.000039
    16  C    2.218229   0.158026   0.080441  -0.070380  -0.020159   0.042744
    17  C    1.214384   0.036709   0.031073   0.035740  -0.000453   0.001151
    18  C   -6.031274  -0.201901  -0.141163  -0.060690  -0.001755   0.064998
    19  O    0.009756   0.001584   0.000331   0.000325  -0.000186   0.000101
    20  C   -1.789925  -0.110044   0.023060   0.012291  -0.021426   0.014811
    21  C   -1.735780  -0.295480   0.451803  -0.099961   0.060065  -0.111957
    22  H   -0.494835  -0.010248  -0.061111   0.000890   0.001252  -0.002651
    23  H   -0.009727  -0.000806   0.000440   0.000212   0.000036  -0.000088
    24  H   -0.135680  -0.018092   0.000180  -0.000320   0.000970  -0.000323
    25  C   14.275922   0.753918  -0.255133   0.075725  -0.019681  -0.016480
    26  H    0.753918   0.525907  -0.015748  -0.001732  -0.008249   0.002236
    27  O   -0.255133  -0.015748   8.036230   0.153011  -0.038480  -0.051541
    28  C    0.075725  -0.001732   0.153011   5.100025   0.394572   0.410826
    29  H   -0.019681  -0.008249  -0.038480   0.394572   0.628333  -0.067288
    30  H   -0.016480   0.002236  -0.051541   0.410826  -0.067288   0.587522
    31  H    0.012030  -0.000830  -0.060955   0.411404  -0.030143  -0.025202
              31
     1  C    0.000000
     2  H    0.000001
     3  H   -0.000023
     4  C    0.000002
     5  H    0.000000
     6  N    0.000013
     7  H   -0.000001
     8  H    0.000000
     9  H    0.000000
    10  C    0.000637
    11  H   -0.000001
    12  C    0.002450
    13  C    0.001529
    14  H    0.001512
    15  O    0.000006
    16  C    0.014618
    17  C    0.000760
    18  C   -0.026205
    19  O    0.000020
    20  C   -0.003775
    21  C    0.018768
    22  H   -0.005325
    23  H   -0.000030
    24  H   -0.000011
    25  C    0.012030
    26  H   -0.000830
    27  O   -0.060955
    28  C    0.411404
    29  H   -0.030143
    30  H   -0.025202
    31  H    0.524206
 Mulliken charges:
               1
     1  C   -0.438989
     2  H    0.193267
     3  H    0.192199
     4  C   -0.302469
     5  H    0.189342
     6  N    0.126764
     7  H    0.183625
     8  H    0.143729
     9  H    0.172641
    10  C    0.601262
    11  H    0.227680
    12  C   -0.366404
    13  C   -0.585679
    14  H    0.132376
    15  O   -0.326112
    16  C    2.021545
    17  C    0.077569
    18  C   -2.051515
    19  O   -0.298446
    20  C   -0.464150
    21  C   -0.619724
    22  H    0.159684
    23  H    0.362933
    24  H    0.239827
    25  C    0.277741
    26  H    0.203627
    27  O   -0.158493
    28  C   -0.330015
    29  H    0.123792
    30  H    0.147850
    31  H    0.164543
 Sum of Mulliken charges =   0.00000
 Mulliken charges with hydrogens summed into heavy atoms:
               1
     1  C    0.130103
     4  C    0.203243
     6  N    0.126764
    10  C    0.828942
    12  C   -0.234028
    13  C   -0.585679
    15  O   -0.326112
    16  C    2.021545
    17  C    0.077569
    18  C   -1.891831
    19  O    0.064487
    20  C   -0.224323
    21  C   -0.619724
    25  C    0.481368
    27  O   -0.158493
    28  C    0.106170
 Electronic spatial extent (au):  <R**2>=           5309.9886
 Charge=              0.0000 electrons
 Dipole moment (field-independent basis, Debye):
    X=             -4.3313    Y=             -4.3077    Z=              0.8254  Tot=              6.1642
 Quadrupole moment (field-independent basis, Debye-Ang):
   XX=            -60.0394   YY=           -100.4483   ZZ=            -99.3531
   XY=              3.9778   XZ=              4.3741   YZ=             -3.6303
 Traceless Quadrupole moment (field-independent basis, Debye-Ang):
   XX=             26.5742   YY=            -13.8347   ZZ=            -12.7395
   XY=              3.9778   XZ=              4.3741   YZ=             -3.6303
 Octapole moment (field-independent basis, Debye-Ang**2):
  XXX=            -91.9563  YYY=            -41.9421  ZZZ=              1.6980  XYY=            -14.7307
  XXY=            -28.6063  XXZ=             11.6530  XZZ=             -7.3500  YZZ=              0.2610
  YYZ=              7.1880  XYZ=            -12.5371
 Hexadecapole moment (field-independent basis, Debye-Ang**3):
 XXXX=          -4222.7271 YYYY=          -1671.0942 ZZZZ=           -159.8260 XXXY=             25.3135
 XXXZ=             34.9038 YYYX=            -53.3102 YYYZ=            -18.9438 ZZZX=              6.3273
 ZZZY=              2.7404 XXYY=          -1043.2745 XXZZ=           -937.3521 YYZZ=           -304.0479
 XXYZ=            -37.5520 YYXZ=             24.9582 ZZXY=             -3.8013
 N-N= 1.050173157824D+03 E-N=-3.843107986228D+03  KE= 7.436127426894D+02
 Calling FoFJK, ICntrl=  10005127 FMM=F ISym2X=0 I1Cent= 0 IOpClX= 0 NMat=1 NMatS=1 NMatT=0.
 ***** Axes restored to original set *****
 -------------------------------------------------------------------
 Center     Atomic                   Forces (Hartrees/Bohr)
 Number     Number              X              Y              Z
 -------------------------------------------------------------------
      1        6           0.001767030   -0.000961036   -0.002866852
      2        1           0.000125120    0.000214776    0.000063303
      3        1          -0.000837773    0.000586513    0.000133287
      4        6          -0.002427799   -0.001211884    0.001568753
      5        1           0.000173716    0.000833795   -0.000439341
      6        7           0.009277417    0.006488067    0.006856276
      7        1          -0.000496474   -0.000318748    0.000487746
      8        1          -0.000225343   -0.000005966   -0.000058021
      9        1           0.000568834    0.000139453    0.000212863
     10        6           0.000040648   -0.002949309   -0.008628158
     11        1          -0.000771769   -0.000420394    0.000469299
     12        6          -0.007432795   -0.002759652    0.001272505
     13        6          -0.021860001    0.004523354    0.034981146
     14        1           0.000351356    0.001007874    0.000889499
     15        8           0.005329411   -0.015390721   -0.037800658
     16        6           0.040382272    0.023013513    0.007100686
     17        6          -0.019781420   -0.018753655   -0.020221566
     18        6           0.013012106    0.012315737    0.002842085
     19        8          -0.011641151    0.003801996    0.019007167
     20        6           0.001240495   -0.004434851   -0.008336165
     21        6          -0.020085923    0.001620216    0.042699197
     22        1          -0.001596278   -0.001011591    0.000518677
     23        1           0.017501722    0.008462333   -0.000219886
     24        1          -0.000385022    0.000655885    0.000503078
     25        6          -0.021899629   -0.006252968    0.013269180
     26        1           0.000594423    0.001366376   -0.000023439
     27        8           0.022324981   -0.008107726   -0.047521292
     28        6          -0.003843124   -0.005005863   -0.004163640
     29        1           0.001036185    0.000632262    0.000717674
     30        1          -0.000475665    0.001962935   -0.001926966
     31        1           0.000034448   -0.000040723   -0.001386438
 -------------------------------------------------------------------
 Cartesian Forces:  Max     0.047521292 RMS     0.012383198

 GradGradGradGradGradGradGradGradGradGradGradGradGradGradGradGradGradGrad
 Berny optimization.
 FormGI is forming the generalized inverse of G from B-inverse, IUseBI=4.
 Internal  Forces:  Max     0.057693662 RMS     0.008466723
 Search for a local minimum.
 Step number   1 out of a maximum of  150
 All quantities printed in internal units (Hartrees-Bohrs-Radians)
 Mixed Optimization -- RFO/linear search
 Second derivative matrix not updated -- first step.
 ITU=  0
     Eigenvalues ---    0.00947   0.01033   0.01057   0.01163   0.01187
     Eigenvalues ---    0.01420   0.01445   0.01453   0.01654   0.01964
     Eigenvalues ---    0.02017   0.02025   0.02087   0.02168   0.02193
     Eigenvalues ---    0.02216   0.02254   0.02282   0.02448   0.02529
     Eigenvalues ---    0.02572   0.02608   0.07401   0.07416   0.07589
     Eigenvalues ---    0.07635   0.10007   0.10623   0.15999   0.16000
     Eigenvalues ---    0.16000   0.16000   0.16000   0.16000   0.16000
     Eigenvalues ---    0.16000   0.16000   0.16000   0.16000   0.16000
     Eigenvalues ---    0.16000   0.16000   0.16000   0.22000   0.22000
     Eigenvalues ---    0.22362   0.23484   0.24597   0.24709   0.24813
     Eigenvalues ---    0.25000   0.25000   0.25000   0.25000   0.25000
     Eigenvalues ---    0.25000   0.33854   0.33934   0.33934   0.34060
     Eigenvalues ---    0.34124   0.34348   0.34392   0.34695   0.34839
     Eigenvalues ---    0.34840   0.35249   0.35436   0.35580   0.35695
     Eigenvalues ---    0.36128   0.38168   0.38269   0.38508   0.39585
     Eigenvalues ---    0.40994   0.42174   0.42754   0.44543   0.45628
     Eigenvalues ---    0.47852   0.48793   0.50064   0.52796   0.56581
     Eigenvalues ---    0.58702   0.85398
 RFO step:  Lambda=-2.59201903D-02 EMin= 9.46683084D-03
 Linear search not attempted -- first point.
 Iteration  1 RMS(Cart)=  0.13690542 RMS(Int)=  0.00312804
 Iteration  2 RMS(Cart)=  0.00584992 RMS(Int)=  0.00010551
 Iteration  3 RMS(Cart)=  0.00001447 RMS(Int)=  0.00010525
 Iteration  4 RMS(Cart)=  0.00000000 RMS(Int)=  0.00010525
 Variable       Old X    -DE/DX   Delta X   Delta X   Delta X     New X
                                 (Linear)    (Quad)   (Total)
    R1        2.05937   0.00022   0.00000   0.00057   0.00057   2.05995
    R2        2.07229   0.00101   0.00000   0.00276   0.00276   2.07505
    R3        2.73633  -0.00223   0.00000  -0.00542  -0.00542   2.73091
    R4        2.06747   0.00066   0.00000   0.00180   0.00180   2.06927
    R5        2.07121   0.00092   0.00000   0.00250   0.00250   2.07371
    R6        2.73975  -0.00229   0.00000  -0.00560  -0.00560   2.73415
    R7        2.05935   0.00005   0.00000   0.00014   0.00014   2.05949
    R8        2.06674   0.00055   0.00000   0.00149   0.00149   2.06823
    R9        2.53753   0.01133   0.00000   0.01916   0.01916   2.55669
   R10        2.05273  -0.00040   0.00000  -0.00105  -0.00105   2.05169
   R11        2.57145   0.00775   0.00000   0.01399   0.01399   2.58544
   R12        2.74121   0.00041   0.00000   0.00101   0.00101   2.74222
   R13        2.03881   0.00109   0.00000   0.00280   0.00280   2.04162
   R14        2.35129   0.04099   0.00000   0.04659   0.04659   2.39788
   R15        2.80877  -0.01564   0.00000  -0.04291  -0.04291   2.76586
   R16        2.67522   0.01877   0.00000   0.04044   0.04039   2.71560
   R17        2.65273  -0.00208   0.00000  -0.00473  -0.00470   2.64803
   R18        2.51982  -0.02036   0.00000  -0.03321  -0.03321   2.48661
   R19        2.64716   0.00540   0.00000   0.01102   0.01094   2.65810
   R20        2.60837   0.01522   0.00000   0.02968   0.02976   2.63813
   R21        2.04561  -0.00129   0.00000  -0.00336  -0.00336   2.04225
   R22        1.86500   0.01883   0.00000   0.03576   0.03576   1.90076
   R23        2.04743  -0.00039   0.00000  -0.00103  -0.00103   2.04640
   R24        2.60570   0.00868   0.00000   0.01707   0.01704   2.62274
   R25        2.64025   0.00974   0.00000   0.02059   0.02064   2.66089
   R26        2.72121  -0.05769   0.00000  -0.13679  -0.13679   2.58442
   R27        2.04973  -0.00085   0.00000  -0.00224  -0.00224   2.04749
   R28        2.67975  -0.00248   0.00000  -0.00546  -0.00546   2.67429
   R29        2.07441  -0.00135   0.00000  -0.00369  -0.00369   2.07073
   R30        2.07441  -0.00185   0.00000  -0.00507  -0.00507   2.06934
   R31        2.06172  -0.00118   0.00000  -0.00316  -0.00316   2.05856
    A1        1.89778  -0.00005   0.00000  -0.00017  -0.00017   1.89761
    A2        1.90734   0.00015   0.00000   0.00124   0.00124   1.90858
    A3        1.89247   0.00007   0.00000   0.00117   0.00117   1.89365
    A4        1.94383  -0.00004   0.00000  -0.00059  -0.00059   1.94324
    A5        1.89422  -0.00029   0.00000  -0.00237  -0.00237   1.89185
    A6        1.92725   0.00015   0.00000   0.00074   0.00074   1.92799
    A7        1.94330   0.00035   0.00000   0.00173   0.00173   1.94503
    A8        1.89324  -0.00014   0.00000  -0.00134  -0.00134   1.89191
    A9        1.89507  -0.00027   0.00000  -0.00113  -0.00113   1.89394
   A10        1.91301  -0.00038   0.00000  -0.00220  -0.00220   1.91081
   A11        1.92686   0.00031   0.00000   0.00198   0.00198   1.92883
   A12        1.89127   0.00012   0.00000   0.00090   0.00090   1.89217
   A13        2.05809  -0.00029   0.00000  -0.00124  -0.00125   2.05684
   A14        2.09865   0.00091   0.00000   0.00313   0.00312   2.10177
   A15        2.11639  -0.00065   0.00000  -0.00258  -0.00258   2.11380
   A16        2.01826   0.00149   0.00000   0.00726   0.00726   2.02552
   A17        2.21640  -0.00117   0.00000  -0.00477  -0.00477   2.21163
   A18        2.04850  -0.00032   0.00000  -0.00252  -0.00252   2.04598
   A19        2.06361   0.00258   0.00000   0.01049   0.01049   2.07410
   A20        2.11463  -0.00210   0.00000  -0.00963  -0.00963   2.10499
   A21        2.10489  -0.00048   0.00000  -0.00088  -0.00088   2.10401
   A22        2.10544   0.00383   0.00000   0.01388   0.01384   2.11928
   A23        2.09966   0.00091   0.00000   0.00329   0.00325   2.10292
   A24        2.07807  -0.00475   0.00000  -0.01722  -0.01725   2.06081
   A25        2.08125  -0.01594   0.00000  -0.05772  -0.05772   2.02353
   A26        2.14390   0.02256   0.00000   0.08183   0.08182   2.22572
   A27        2.05803  -0.00662   0.00000  -0.02411  -0.02411   2.03392
   A28        2.14230  -0.02502   0.00000  -0.09074  -0.09069   2.05162
   A29        2.09225   0.01309   0.00000   0.04760   0.04748   2.13973
   A30        2.04863   0.01192   0.00000   0.04314   0.04319   2.09183
   A31        2.12919  -0.00819   0.00000  -0.03173  -0.03162   2.09758
   A32        2.08898   0.00554   0.00000   0.02363   0.02355   2.11253
   A33        2.06501   0.00265   0.00000   0.00810   0.00802   2.07303
   A34        1.85525  -0.00897   0.00000  -0.04824  -0.04824   1.80701
   A35        2.05702   0.00278   0.00000   0.01113   0.01117   2.06818
   A36        2.10303  -0.00420   0.00000  -0.01498  -0.01510   2.08793
   A37        2.12314   0.00142   0.00000   0.00386   0.00390   2.12703
   A38        2.08060   0.01723   0.00000   0.06552   0.06558   2.14619
   A39        2.09982  -0.01389   0.00000  -0.05188  -0.05201   2.04781
   A40        2.10276  -0.00334   0.00000  -0.01363  -0.01378   2.08899
   A41        2.10326  -0.01131   0.00000  -0.04229  -0.04228   2.06098
   A42        2.08676   0.00648   0.00000   0.02558   0.02555   2.11230
   A43        2.09317   0.00483   0.00000   0.01671   0.01667   2.10984
   A44        2.06284  -0.01567   0.00000  -0.05679  -0.05679   2.00606
   A45        1.94999   0.00140   0.00000   0.00780   0.00781   1.95780
   A46        1.94999  -0.00320   0.00000  -0.01772  -0.01773   1.93226
   A47        1.85102  -0.00054   0.00000  -0.00269  -0.00272   1.84830
   A48        1.90154   0.00081   0.00000   0.00398   0.00399   1.90553
   A49        1.90501   0.00019   0.00000   0.00206   0.00205   1.90707
   A50        1.90501   0.00138   0.00000   0.00684   0.00680   1.91181
    D1       -0.23535  -0.00006   0.00000  -0.00223  -0.00223  -0.23759
    D2        3.05628   0.00021   0.00000   0.00315   0.00315   3.05943
    D3        1.86173  -0.00004   0.00000  -0.00200  -0.00201   1.85972
    D4       -1.12983   0.00023   0.00000   0.00338   0.00338  -1.12645
    D5       -2.31559  -0.00034   0.00000  -0.00489  -0.00490  -2.32049
    D6        0.97604  -0.00007   0.00000   0.00048   0.00049   0.97653
    D7       -1.11509  -0.00009   0.00000  -0.00016  -0.00017  -1.11526
    D8        1.87486  -0.00023   0.00000  -0.00508  -0.00507   1.86978
    D9        3.07328   0.00011   0.00000   0.00185   0.00185   3.07513
   D10       -0.21995  -0.00002   0.00000  -0.00307  -0.00306  -0.22301
   D11        0.99124   0.00001   0.00000   0.00090   0.00090   0.99214
   D12       -2.30200  -0.00012   0.00000  -0.00402  -0.00401  -2.30601
   D13        3.11800  -0.00014   0.00000  -0.00309  -0.00309   3.11491
   D14       -0.03175  -0.00030   0.00000  -0.00626  -0.00627  -0.03802
   D15        0.13154   0.00010   0.00000   0.00233   0.00234   0.13387
   D16       -3.01821  -0.00006   0.00000  -0.00084  -0.00084  -3.01905
   D17       -3.12117  -0.00011   0.00000  -0.00223  -0.00223  -3.12341
   D18        0.03168  -0.00001   0.00000  -0.00004  -0.00004   0.03163
   D19        0.01214  -0.00027   0.00000  -0.00541  -0.00541   0.00674
   D20       -3.11819  -0.00017   0.00000  -0.00322  -0.00321  -3.12141
   D21        0.01311  -0.00057   0.00000  -0.01464  -0.01470  -0.00159
   D22       -3.12377   0.00002   0.00000   0.00068   0.00075  -3.12302
   D23       -3.13968  -0.00067   0.00000  -0.01688  -0.01695   3.12656
   D24        0.00663  -0.00008   0.00000  -0.00157  -0.00150   0.00513
[...]
 Alpha virt. eigenvalues --    2.16182   2.18059   2.18205   2.19072   2.19826
 Alpha virt. eigenvalues --    2.21605   2.21844   2.23618   2.24434   2.25340
 Alpha virt. eigenvalues --    2.30071   2.31010   2.32757   2.35036   2.37943
 Alpha virt. eigenvalues --    2.39570   2.42287   2.42925   2.44886   2.47013
 Alpha virt. eigenvalues --    2.48285   2.51027   2.54846   2.56517   2.56970
 Alpha virt. eigenvalues --    2.57921   2.58529   2.60497   2.60882   2.63050
 Alpha virt. eigenvalues --    2.63506   2.64423   2.67392   2.68377   2.69251
 Alpha virt. eigenvalues --    2.69836   2.72304   2.72933   2.74205   2.74945
 Alpha virt. eigenvalues --    2.76949   2.79960   2.82152   2.82562   2.83231
 Alpha virt. eigenvalues --    2.83495   2.87027   2.87993   2.89780   2.90571
 Alpha virt. eigenvalues --    2.91749   2.92935   2.93369   2.96110   2.97858
 Alpha virt. eigenvalues --    2.99770   3.00368   3.02118   3.03266   3.03981
 Alpha virt. eigenvalues --    3.06406   3.08961   3.09278   3.12617   3.14414
 Alpha virt. eigenvalues --    3.15809   3.18577   3.20394   3.22714   3.25631
 Alpha virt. eigenvalues --    3.25954   3.26354   3.29168   3.32780   3.35035
 Alpha virt. eigenvalues --    3.39773   3.41304   3.43955   3.47066   3.52098
 Alpha virt. eigenvalues --    3.52903   3.53684   3.58404   3.62621   3.62962
 Alpha virt. eigenvalues --    3.66459   3.67579   3.74868   3.77144   3.78042
 Alpha virt. eigenvalues --    3.80754   3.83409   3.85163   3.87481   3.88205
 Alpha virt. eigenvalues --    3.90323   3.95072   3.96712   3.99599   4.03789
 Alpha virt. eigenvalues --    4.11666   4.21319   4.24199   4.29979   4.31269
 Alpha virt. eigenvalues --    4.33405   4.39962   4.49808   4.93622   4.96857
 Alpha virt. eigenvalues --    5.07145   5.16069   5.19199   5.30459   5.44873
 Alpha virt. eigenvalues --    5.52053   5.55283   5.80616   5.92495   6.00792
 Alpha virt. eigenvalues --   23.75650  23.87902  24.00138  24.01748  24.03482
 Alpha virt. eigenvalues --   24.08225  24.08630  24.13899  24.16229  24.23530
 Alpha virt. eigenvalues --   24.32420  24.37822  35.61552  50.03481  50.14748
 Alpha virt. eigenvalues --   50.28442
          Condensed to atoms (all electrons):
               1          2          3          4          5          6
     1  C    5.373196   0.369204   0.425377  -0.159193   0.012182   0.272159
     2  H    0.369204   0.495311  -0.023265   0.003102  -0.005946  -0.045855
     3  H    0.425377  -0.023265   0.476717  -0.016013   0.006878  -0.047281
     4  C   -0.159193   0.003102  -0.016013   5.316614   0.417887   0.267166
     5  H    0.012182  -0.005946   0.006878   0.417887   0.518217  -0.024592
     6  N    0.272159  -0.045855  -0.047281   0.267166  -0.024592   6.668994
     7  H    0.389003  -0.020464  -0.037630   0.018120  -0.000363  -0.022618
     8  H    0.002286   0.002921  -0.000750   0.387853  -0.035933  -0.071622
     9  H   -0.026050   0.005491   0.001107   0.404791  -0.052296  -0.045777
    10  C   -0.179709   0.014750   0.027711  -0.140845  -0.075096   0.185494
    11  H    0.014566  -0.000925  -0.002179  -0.017029   0.005829  -0.054206
    12  C    0.274528   0.017149  -0.028238  -0.117192   0.028155  -0.184644
    13  C   -0.189643  -0.002306  -0.004695  -0.013393  -0.003798  -0.005933
    14  H    0.015332   0.001693  -0.007545  -0.003728   0.001653  -0.032769
    15  O   -0.000843   0.000074  -0.000220  -0.003072  -0.000130  -0.001705
    16  C   -0.133911  -0.002975   0.000164   0.012502  -0.000708  -0.005760
    17  C   -0.010375  -0.000818   0.005025   0.018550  -0.000367  -0.000943
    18  C    0.002367   0.001468  -0.000649  -0.013642   0.000321  -0.005015
    19  O    0.001578   0.000153  -0.000450  -0.000951   0.000056   0.000519
    20  C    0.013864   0.000702  -0.002297  -0.004546   0.000034   0.001087
    21  C    0.001454   0.000164   0.001618  -0.000049   0.000136   0.000307
    22  H   -0.000558   0.000051   0.000134   0.000646   0.000017   0.000788
    23  H   -0.000877   0.000040   0.000022  -0.000078  -0.000138  -0.000204
    24  H    0.000096   0.000011  -0.000027  -0.000058   0.000006   0.000048
    25  C   -0.003937  -0.000257   0.000959   0.002308  -0.000145  -0.000488
    26  H   -0.000076  -0.000002  -0.000001   0.000018  -0.000002  -0.000007
    27  O    0.000018   0.000002  -0.000001   0.000005   0.000000   0.000017
    28  C   -0.000055   0.000002  -0.000002  -0.000002   0.000000   0.000003
    29  H    0.000014   0.000001   0.000003   0.000001   0.000000   0.000002
    30  H    0.000002   0.000000   0.000001  -0.000002   0.000000  -0.000001
    31  H   -0.000004   0.000000  -0.000001   0.000001   0.000000   0.000001
               7          8          9         10         11         12
     1  C    0.389003   0.002286  -0.026050  -0.179709   0.014566   0.274528
     2  H   -0.020464   0.002921   0.005491   0.014750  -0.000925   0.017149
     3  H   -0.037630  -0.000750   0.001107   0.027711  -0.002179  -0.028238
     4  C    0.018120   0.387853   0.404791  -0.140845  -0.017029  -0.117192
     5  H   -0.000363  -0.035933  -0.052296  -0.075096   0.005829   0.028155
     6  N   -0.022618  -0.071622  -0.045777   0.185494  -0.054206  -0.184644
     7  H    0.509370  -0.002884   0.000396   0.016285   0.001650  -0.044295
     8  H   -0.002884   0.524961  -0.013912   0.059367  -0.008257  -0.026337
     9  H    0.000396  -0.013912   0.535145   0.020714  -0.002044  -0.005420
    10  C    0.016285   0.059367   0.020714   8.507996   0.363963  -1.615492
    11  H    0.001650  -0.008257  -0.002044   0.363963   0.451140   0.152438
    12  C   -0.044295  -0.026337  -0.005420  -1.615492   0.152438  13.639969
    13  C   -0.002626   0.017079   0.003232  -1.447991  -0.092112  -0.415774
    14  H   -0.001078  -0.001636  -0.001585  -0.174819   0.007496   0.570619
    15  O    0.000385   0.000819  -0.000001   0.054850   0.000417  -0.528807
    16  C    0.005884   0.005454   0.000092   0.288446  -0.056341  -4.942910
    17  C    0.001808   0.004289   0.000729   0.432163  -0.028594  -2.223004
    18  C   -0.003101  -0.003407  -0.000981  -0.167206   0.006461   1.187011
    19  O   -0.000081  -0.000189  -0.000008  -0.056743   0.003268   0.125676
    20  C   -0.003335  -0.000230  -0.000071  -0.235034   0.005712   0.744751
    21  C    0.000252  -0.000366  -0.000147   0.088889   0.000707   0.230488
    22  H   -0.000818   0.000078  -0.000004   0.003059  -0.001182  -0.113450
    23  H   -0.000108   0.000275   0.000039  -0.015039  -0.001661   0.026778
    24  H   -0.000057  -0.000011  -0.000002  -0.004273   0.000102  -0.004577
    25  C    0.002691   0.000363   0.000055   0.172543  -0.005239  -0.257590
    26  H    0.000073   0.000001   0.000001   0.002365   0.000018  -0.000767
    27  O    0.000013   0.000001   0.000000  -0.000065  -0.000046  -0.001624
    28  C    0.000018   0.000000   0.000000  -0.000425  -0.000024  -0.022893
    29  H   -0.000013   0.000000   0.000000  -0.000107   0.000010   0.000380
    30  H   -0.000005   0.000000   0.000000  -0.000107  -0.000011   0.000801
    31  H    0.000006   0.000000   0.000000   0.000075  -0.000007  -0.001529
              13         14         15         16         17         18
     1  C   -0.189643   0.015332  -0.000843  -0.133911  -0.010375   0.002367
     2  H   -0.002306   0.001693   0.000074  -0.002975  -0.000818   0.001468
     3  H   -0.004695  -0.007545  -0.000220   0.000164   0.005025  -0.000649
     4  C   -0.013393  -0.003728  -0.003072   0.012502   0.018550  -0.013642
     5  H   -0.003798   0.001653  -0.000130  -0.000708  -0.000367   0.000321
     6  N   -0.005933  -0.032769  -0.001705  -0.005760  -0.000943  -0.005015
     7  H   -0.002626  -0.001078   0.000385   0.005884   0.001808  -0.003101
     8  H    0.017079  -0.001636   0.000819   0.005454   0.004289  -0.003407
     9  H    0.003232  -0.001585  -0.000001   0.000092   0.000729  -0.000981
    10  C   -1.447991  -0.174819   0.054850   0.288446   0.432163  -0.167206
    11  H   -0.092112   0.007496   0.000417  -0.056341  -0.028594   0.006461
    12  C   -0.415774   0.570619  -0.528807  -4.942910  -2.223004   1.187011
    13  C   10.320238   0.028707   0.557005  -0.452340  -0.762778  -1.031080
    14  H    0.028707   0.493416  -0.003783  -0.028619  -0.098468   0.025382
    15  O    0.557005  -0.003783   7.778213   0.277086   0.013114  -0.185415
    16  C   -0.452340  -0.028619   0.277086  16.848866  -0.857017  -1.553200
    17  C   -0.762778  -0.098468   0.013114  -0.857017  19.432120  -6.359118
    18  C   -1.031080   0.025382  -0.185415  -1.553200  -6.359118  15.735873
    19  O    0.129186   0.006391  -0.004503   0.009077   0.004471   0.078484
    20  C    0.181550   0.058691  -0.010379  -2.057432  -5.942921   3.927063
    21  C   -0.206967  -0.035624  -0.062527  -2.813998  -0.533199   0.831578
    22  H   -0.041700   0.000465  -0.002242   0.129754   0.155915   0.346267
    23  H    0.056346   0.000568   0.259908  -0.025785  -0.061854   0.041647
    24  H   -0.015075   0.000789  -0.000621  -0.071898  -0.115761   0.091354
    25  C   -0.191142  -0.052680   0.018103   0.360868   3.175006  -6.182012
    26  H    0.003005  -0.000292   0.000229   0.090926   0.003739  -0.094036
    27  O    0.004140  -0.000481  -0.000132  -0.023885   0.026712  -0.388630
    28  C   -0.030257  -0.000159  -0.000551  -0.055961   0.109429   0.299982
    29  H    0.001244   0.000004  -0.000098  -0.017130   0.010335  -0.004230
    30  H   -0.002309  -0.000067   0.000123  -0.008677  -0.012597   0.017380
    31  H   -0.001275  -0.000041   0.000014   0.008515   0.001234   0.009851
              19         20         21         22         23         24
     1  C    0.001578   0.013864   0.001454  -0.000558  -0.000877   0.000096
     2  H    0.000153   0.000702   0.000164   0.000051   0.000040   0.000011
     3  H   -0.000450  -0.002297   0.001618   0.000134   0.000022  -0.000027
     4  C   -0.000951  -0.004546  -0.000049   0.000646  -0.000078  -0.000058
     5  H    0.000056   0.000034   0.000136   0.000017  -0.000138   0.000006
     6  N    0.000519   0.001087   0.000307   0.000788  -0.000204   0.000048
     7  H   -0.000081  -0.003335   0.000252  -0.000818  -0.000108  -0.000057
     8  H   -0.000189  -0.000230  -0.000366   0.000078   0.000275  -0.000011
     9  H   -0.000008  -0.000071  -0.000147  -0.000004   0.000039  -0.000002
    10  C   -0.056743  -0.235034   0.088889   0.003059  -0.015039  -0.004273
    11  H    0.003268   0.005712   0.000707  -0.001182  -0.001661   0.000102
    12  C    0.125676   0.744751   0.230488  -0.113450   0.026778  -0.004577
    13  C    0.129186   0.181550  -0.206967  -0.041700   0.056346  -0.015075
    14  H    0.006391   0.058691  -0.035624   0.000465   0.000568   0.000789
    15  O   -0.004503  -0.010379  -0.062527  -0.002242   0.259908  -0.000621
    16  C    0.009077  -2.057432  -2.813998   0.129754  -0.025785  -0.071898
    17  C    0.004471  -5.942921  -0.533199   0.155915  -0.061854  -0.115761
    18  C    0.078484   3.927063   0.831578   0.346267   0.041647   0.091354
    19  O    8.377207  -0.080505  -0.077595  -0.001728  -0.012273  -0.018522
    20  C   -0.080505  16.876822  -1.364176  -0.044846  -0.026631   0.522772
    21  C   -0.077595  -1.364176  10.726754  -0.076140   0.016848   0.083939
    22  H   -0.001728  -0.044846  -0.076140   0.532303   0.001965   0.002566
    23  H   -0.012273  -0.026631   0.016848   0.001965   0.377148  -0.000427
    24  H   -0.018522   0.522772   0.083939   0.002566  -0.000427   0.500475
    25  C   -0.017845  -5.942571  -0.225610  -0.087687   0.009386  -0.168794
    26  H    0.003397  -0.078551  -0.191371  -0.005171   0.000025  -0.021694
    27  O    0.000162   0.009724   0.125343  -0.020183   0.000014  -0.001898
    28  C   -0.001949  -0.257252   0.121458   0.010332   0.000266   0.007184
    29  H   -0.000024   0.020717  -0.035016   0.000812  -0.000017   0.000917
    30  H    0.000127   0.018167  -0.025508  -0.001019   0.000016   0.000354
    31  H   -0.000050  -0.015855   0.050734   0.001004   0.000013   0.000323
              25         26         27         28         29         30
     1  C   -0.003937  -0.000076   0.000018  -0.000055   0.000014   0.000002
     2  H   -0.000257  -0.000002   0.000002   0.000002   0.000001   0.000000
     3  H    0.000959  -0.000001  -0.000001  -0.000002   0.000003   0.000001
     4  C    0.002308   0.000018   0.000005  -0.000002   0.000001  -0.000002
     5  H   -0.000145  -0.000002   0.000000   0.000000   0.000000   0.000000
     6  N   -0.000488  -0.000007   0.000017   0.000003   0.000002  -0.000001
     7  H    0.002691   0.000073   0.000013   0.000018  -0.000013  -0.000005
     8  H    0.000363   0.000001   0.000001   0.000000   0.000000   0.000000
     9  H    0.000055   0.000001   0.000000   0.000000   0.000000   0.000000
    10  C    0.172543   0.002365  -0.000065  -0.000425  -0.000107  -0.000107
    11  H   -0.005239   0.000018  -0.000046  -0.000024   0.000010  -0.000011
    12  C   -0.257590  -0.000767  -0.001624  -0.022893   0.000380   0.000801
    13  C   -0.191142   0.003005   0.004140  -0.030257   0.001244  -0.002309
    14  H   -0.052680  -0.000292  -0.000481  -0.000159   0.000004  -0.000067
    15  O    0.018103   0.000229  -0.000132  -0.000551  -0.000098   0.000123
    16  C    0.360868   0.090926  -0.023885  -0.055961  -0.017130  -0.008677
    17  C    3.175006   0.003739   0.026712   0.109429   0.010335  -0.012597
    18  C   -6.182012  -0.094036  -0.388630   0.299982  -0.004230   0.017380
    19  O   -0.017845   0.003397   0.000162  -0.001949  -0.000024   0.000127
    20  C   -5.942571  -0.078551   0.009724  -0.257252   0.020717   0.018167
    21  C   -0.225610  -0.191371   0.125343   0.121458  -0.035016  -0.025508
    22  H   -0.087687  -0.005171  -0.020183   0.010332   0.000812  -0.001019
    23  H    0.009386   0.000025   0.000014   0.000266  -0.000017   0.000016
    24  H   -0.168794  -0.021694  -0.001898   0.007184   0.000917   0.000354
    25  C   14.576321   0.596634   0.145591  -0.462016   0.012337   0.003630
    26  H    0.596634   0.560505  -0.013827  -0.014723  -0.012059  -0.012774
    27  O    0.145591  -0.013827   8.248231   0.194535  -0.041496  -0.040060
    28  C   -0.462016  -0.014723   0.194535   5.248455   0.397791   0.401607
    29  H    0.012337  -0.012059  -0.041496   0.397791   0.610847  -0.073384
    30  H    0.003630  -0.012774  -0.040060   0.401607  -0.073384   0.601266
    31  H   -0.010134   0.003676  -0.075924   0.399914  -0.026737  -0.024416
              31
     1  C   -0.000004
     2  H    0.000000
     3  H   -0.000001
     4  C    0.000001
     5  H    0.000000
     6  N    0.000001
     7  H    0.000006
     8  H    0.000000
     9  H    0.000000
    10  C    0.000075
    11  H   -0.000007
    12  C   -0.001529
    13  C   -0.001275
    14  H   -0.000041
    15  O    0.000014
    16  C    0.008515
    17  C    0.001234
    18  C    0.009851
    19  O   -0.000050
    20  C   -0.015855
    21  C    0.050734
    22  H    0.001004
    23  H    0.000013
    24  H    0.000323
    25  C   -0.010134
    26  H    0.003676
    27  O   -0.075924
    28  C    0.399914
    29  H   -0.026737
    30  H   -0.024416
    31  H    0.490381
 Mulliken charges:
               1
     1  C   -0.461998
     2  H    0.190524
     3  H    0.225529
     4  C   -0.359770
     5  H    0.208144
     6  N    0.152836
     7  H    0.193522
     8  H    0.159789
     9  H    0.176505
    10  C   -0.125718
    11  H    0.256081
    12  C   -0.464199
    13  C   -0.388537
    14  H    0.232168
    15  O   -0.155307
    16  C    1.070914
    17  C   -0.386824
    18  C   -0.610766
    19  O   -0.466337
    20  C   -0.315022
    21  C   -0.632372
    22  H    0.210575
    23  H    0.353785
    24  H    0.212761
    25  C    0.531353
    26  H    0.180741
    27  O   -0.146257
    28  C   -0.344706
    29  H    0.154894
    30  H    0.157464
    31  H    0.190229
 Sum of Mulliken charges =   0.00000
 Mulliken charges with hydrogens summed into heavy atoms:
               1
     1  C    0.147577
     4  C    0.184667
     6  N    0.152836
    10  C    0.130362
    12  C   -0.232030
    13  C   -0.388537
    15  O    0.198477
    16  C    1.070914
    17  C   -0.386824
    18  C   -0.400191
    19  O   -0.466337
    20  C   -0.102261
    21  C   -0.632372
    25  C    0.712093
    27  O   -0.146257
    28  C    0.157882
 Electronic spatial extent (au):  <R**2>=           5398.7956
 Charge=              0.0000 electrons
 Dipole moment (field-independent basis, Debye):
    X=            -10.1692    Y=             -5.2274    Z=              0.9866  Tot=             11.4765
 Quadrupole moment (field-independent basis, Debye-Ang):
   XX=            -46.9897   YY=           -109.5109   ZZ=            -93.6533
   XY=              2.4268   XZ=              1.2708   YZ=             11.1957
 Traceless Quadrupole moment (field-independent basis, Debye-Ang):
   XX=             36.3949   YY=            -26.1263   ZZ=            -10.2687
   XY=              2.4268   XZ=              1.2708   YZ=             11.1957
 Octapole moment (field-independent basis, Debye-Ang**2):
  XXX=           -161.0619  YYY=            -48.8997  ZZZ=              8.2785  XYY=            -17.2936
  XXY=            -31.4046  XXZ=            -25.7070  XZZ=            -20.7716  YZZ=              0.7780
  YYZ=             17.7049  XYZ=            -10.5484
 Hexadecapole moment (field-independent basis, Debye-Ang**3):
 XXXX=          -4246.9501 YYYY=          -1109.6724 ZZZZ=           -496.2520 XXXY=            -21.5138
 XXXZ=              5.3960 YYYX=            -27.8887 YYYZ=             70.9381 ZZZX=             21.6708
 ZZZY=             36.4697 XXYY=          -1057.0177 XXZZ=           -992.6634 YYZZ=           -227.9235
 XXYZ=             43.8583 YYXZ=             12.6168 ZZXY=             10.0396
 N-N= 1.046804531982D+03 E-N=-3.836540687993D+03  KE= 7.435913742728D+02
 1\1\GINC-NXN37\FOpt\RwB97XD TD-FC\6-311++G(d,p)\C12H15N1O3\BTX008\22-J
 un-2017\0\\# wb97xd 6-311++g** opt td=(nstates=1,root=1)\\Geom Opt s1\
 \0,1\C,-0.2651935135,0.9596356772,7.7714515217\H,0.5646760595,1.643464
 0956,7.9560699846\H,-1.0038695439,1.4689326128,7.1330436512\C,1.297263
 1118,-0.0631259772,6.193287079\H,0.9456001501,0.4557029579,5.288840363
 5\N,0.2417997851,-0.2500100117,7.1681860129\H,-0.7360078499,0.73347846
 9,8.7308441157\H,1.6974526531,-1.0341148691,5.8965486236\H,2.109683427
 2,0.5188420253,6.6346162462\C,-0.6309968467,-1.2935152276,6.9442357306
 \H,-0.2089899265,-2.130511488,6.4020018308\C,-1.9305123592,-1.37336747
 33,7.3892523841\C,-2.7456581493,-2.4793195127,7.2101074817\H,-2.380242
 0049,-0.5374956776,7.9111569029\O,-2.2251141791,-3.612784981,6.6443949
 715\C,-4.1475701015,-2.5523721986,7.6820836901\C,-5.2068661633,-2.2337
 625742,6.740477935\C,-4.4546357595,-2.9616949451,8.9548197183\O,-4.955
 1741835,-1.9516816228,5.5524411251\C,-6.5626568319,-2.2971441004,7.237
 7600419\C,-5.7866925258,-3.0309934022,9.3915520029\H,-3.6720339477,-3.
 2226524838,9.6568986308\H,-2.8909914005,-4.0212450045,6.0890257934\H,-
 7.3547733554,-2.0306517229,6.5478835093\C,-6.8433480722,-2.6859017728,
 8.5175926647\H,-7.8718331753,-2.7266904558,8.8526753404\O,-5.963031206
 9,-3.4249102054,10.6611061893\C,-7.277177063,-3.5251408156,11.18161150
 65\H,-7.7795287076,-2.5532003899,11.1787967168\H,-7.8700128697,-4.2512
 033643,10.6174332424\H,-7.1639831511,-3.8707482354,12.2067036501\\Vers
 ion=ES64L-G09RevD.01\State=1-A\HF=-746.5732052\RMSD=5.007e-09\RMSF=1.6
 03e-05\Dipole=-0.9068634,0.0874638,1.517413\PG=C01 [X(C12H15N1O3)]\\@


 IN SO FAR AS QUANTUM MECHANICS IS CORRECT, CHEMICAL 
 QUESTIONS ARE PROBLEMS IN APPLIED MATHEMATICS.

                    -- EYRING, WALTER, & KIMBALL, 1944
 Job cpu time:       5 days 15 hours 54 minutes 43.2 seconds.
 File lengths (MBytes):  RWF=    206 Int=      0 D2E=      0 Chk=     30 Scr=      1
 Normal termination of Gaussian 09 at Thu Jun 22 09:05:59 2017.
