 Entering Gaussian System, Link 0=g09
 Input=5_optS1_chainrotated.com
 Output=5_optS1_chainrotated.out
 Initial command:
 /share/apps/gaussian/g09_D01/g09/l1.exe "/tmp/4042856.1.chemistry.q/Gau-13042.inp" -scrdir="/tmp/4042856.1.chemistry.q/"
 Entering Link 1 = /share/apps/gaussian/g09_D01/g09/l1.exe PID=     13043.
  
 Copyright (c) 1988,1990,1992,1993,1995,1998,2003,2009,2013,
            Gaussian, Inc.  All Rights Reserved.
  
 This is part of the Gaussian(R) 09 program.  It is based on
 the Gaussian(R) 03 system (copyright 2003, Gaussian, Inc.),
 the Gaussian(R) 98 system (copyright 1998, Gaussian, Inc.),
 the Gaussian(R) 94 system (copyright 1995, Gaussian, Inc.),
 the Gaussian 92(TM) system (copyright 1992, Gaussian, Inc.),
 the Gaussian 90(TM) system (copyright 1990, Gaussian, Inc.),
 the Gaussian 88(TM) system (copyright 1988, Gaussian, Inc.),
 the Gaussian 86(TM) system (copyright 1986, Carnegie Mellon
 University), and the Gaussian 82(TM) system (copyright 1983,
 Carnegie Mellon University). Gaussian is a federally registered
 trademark of Gaussian, Inc.
  
 This software contains proprietary and confidential information,
 including trade secrets, belonging to Gaussian, Inc.
  
 This software is provided under written license and may be
 used, copied, transmitted, or stored only in accord with that
 written license.
  
 The following legend is applicable only to US Government
 contracts under FAR:
  
                    RESTRICTED RIGHTS LEGEND
  
 Use, reproduction and disclosure by the US Government is
 subject to restrictions as set forth in subparagraphs (a)
 and (c) of the Commercial Computer Software - Restricted
 Rights clause in FAR 52.227-19.
  
 Gaussian, Inc.
 340 Quinnipiac St., Bldg. 40, Wallingford CT 06492
  
  
 ---------------------------------------------------------------
 Warning -- This program may not be used in any manner that
 competes with the business of Gaussian, Inc. or will provide
 assistance to any competitor of Gaussian, Inc.  The licensee
 of this program is prohibited from giving any competitor of
 Gaussian, Inc. access to this program.  By using this program,
 the user acknowledges that Gaussian, Inc. is engaged in the
 business of creating and licensing software in the field of
 computational chemistry and represents and warrants to the
 licensee that it is not a competitor of Gaussian, Inc. and that
 it will not use this program in any manner prohibited above.
 ---------------------------------------------------------------
  

 Cite this work as:
 Gaussian 09, Revision D.01,
 M. J. Frisch, G. W. Trucks, H. B. Schlegel, G. E. Scuseria, 
 M. A. Robb, J. R. Cheeseman, G. Scalmani, V. Barone, B. Mennucci, 
 G. A. Petersson, H. Nakatsuji, M. Caricato, X. Li, H. P. Hratchian, 
 A. F. Izmaylov, J. Bloino, G. Zheng, J. L. Sonnenberg, M. Hada, 
 M. Ehara, K. Toyota, R. Fukuda, J. Hasegawa, M. Ishida, T. Nakajima, 
 Y. Honda, O. Kitao, H. Nakai, T. Vreven, J. A. Montgomery, Jr., 
 J. E. Peralta, F. Ogliaro, M. Bearpark, J. J. Heyd, E. Brothers, 
 K. N. Kudin, V. N. Staroverov, T. Keith, R. Kobayashi, J. Normand, 
 K. Raghavachari, A. Rendell, J. C. Burant, S. S. Iyengar, J. Tomasi, 
 M. Cossi, N. Rega, J. M. Millam, M. Klene, J. E. Knox, J. B. Cross, 
 V. Bakken, C. Adamo, J. Jaramillo, R. Gomperts, R. E. Stratmann, 
 O. Yazyev, A. J. Austin, R. Cammi, C. Pomelli, J. W. Ochterski, 
 R. L. Martin, K. Morokuma, V. G. Zakrzewski, G. A. Voth, 
 P. Salvador, J. J. Dannenberg, S. Dapprich, A. D. Daniels, 
 O. Farkas, J. B. Foresman, J. V. Ortiz, J. Cioslowski, 
 and D. J. Fox, Gaussian, Inc., Wallingford CT, 2013.
 
 ******************************************
 Gaussian 09:  ES64L-G09RevD.01 24-Apr-2013
                23-Aug-2017 
 ******************************************
 %chk=5_optS1_chainrotated.chk
 %mem=28GB
 %nproc=4
 Will use up to    4 processors via shared memory.
 ---------------------------------------------
 # wb97xd 6-311++g** opt td=(nstates=1,root=1)
 ---------------------------------------------
 1/14=-1,18=20,19=15,26=3,38=1/1,3;
 2/9=110,12=2,17=6,18=5,40=1/2;
 3/5=4,6=6,7=1111,11=9,16=1,25=1,30=1,71=1,74=-58/1,2,8,3;
 4//1;
 5/5=2,38=5/2;
 8/6=1,10=2,107=1,108=1/1;
 9/8=1,15=2,41=1,42=1,70=2/14;
 10/5=4/2;
 6/7=2,8=2,9=2,10=2/1;
 7/12=6,13=5,14=1/1,2,3,16;
 1/14=-1,18=20,19=15,26=3/3(2);
 2/9=110/2;
 99//99;
 2/9=110/2;
 3/5=4,6=6,7=1111,11=9,16=1,25=1,30=1,71=1,74=-58/1,2,8,3;
 4/5=5,16=3,69=1/1;
 5/5=2,38=5/2;
 8/6=1,10=2,107=1,108=1/1;
 9/8=1,15=2,41=1,42=1,49=4,70=2/14;
 10/5=4/2;
 7/12=6,13=5,14=1/1,2,3,16;
 1/14=-1,18=20,19=15,26=3/3(-8);
 2/9=110/2;
 6/7=2,8=2,9=2,10=2/1;
 99//99;
 ----------------------
 restarted optimization
 ----------------------
 Symbolic Z-matrix:
 Charge =  0 Multiplicity = 1
 C                    -0.13951   0.68677   6.03176 
 H                     0.50477   1.44135   5.58413 
 H                    -0.60693   1.10514   6.92637 
 C                    -1.18233   1.01626   3.79852 
 H                    -1.35115   2.08091   3.97851 
 N                    -1.15026   0.29371   5.05962 
 H                     0.46848  -0.17526   6.31416 
 H                    -1.98499   0.63123   3.17216 
 H                    -0.23188   0.89147   3.2737 
 C                    -2.01825  -0.67866   5.32103 
 H                    -2.7172   -0.9154    4.52657 
 C                    -2.11027  -1.39516   6.50375 
 C                    -3.01716  -2.54063   6.58075 
 H                    -1.36837  -1.25197   7.28803 
 O                    -2.30198  -3.5089    6.08453 
 C                    -4.31496  -2.59871   7.1363 
 C                    -5.0332   -3.82957   7.15499 
 C                    -4.95458  -1.45947   7.67525 
 O                    -4.48371  -4.96603   6.6644 
 C                    -6.31322  -3.88407   7.67584 
 C                    -6.23694  -1.52949   8.19492 
 H                    -4.42158  -0.51384   7.68139 
 H                    -3.58514  -4.76484   6.34945 
 H                    -6.8272   -4.83849   7.67127 
 C                    -6.92195  -2.74088   8.19551 
 H                    -7.92454  -2.80492   8.60173 
 O                    -6.86086  -0.34908   8.73432 
 C                    -7.92618  -0.51575   9.65531 
 H                    -8.77202  -1.05176   9.20558 
 H                    -7.60344  -1.05176   10.55728 
 H                    -8.24608   0.48997   9.93188 
 

 GradGradGradGradGradGradGradGradGradGradGradGradGradGradGradGradGradGrad
 Berny optimization.
 Initialization pass.
                           ----------------------------
                           !    Initial Parameters    !
                           ! (Angstroms and Degrees)  !
 --------------------------                            --------------------------
 ! Name  Definition              Value          Derivative Info.                !
 --------------------------------------------------------------------------------
 ! R1    R(1,2)                  1.0885         estimate D2E/DX2                !
 ! R2    R(1,3)                  1.0926         estimate D2E/DX2                !
 ! R3    R(1,6)                  1.4564         estimate D2E/DX2                !
 ! R4    R(1,7)                  1.092          estimate D2E/DX2                !
 ! R5    R(4,5)                  1.0929         estimate D2E/DX2                !
 ! R6    R(4,6)                  1.4538         estimate D2E/DX2                !
 ! R7    R(4,8)                  1.0885         estimate D2E/DX2                !
 ! R8    R(4,9)                  1.0929         estimate D2E/DX2                !
 ! R9    R(6,10)                 1.3294         estimate D2E/DX2                !
 ! R10   R(10,11)                1.0843         estimate D2E/DX2                !
 ! R11   R(10,12)                1.3859         estimate D2E/DX2                !
 ! R12   R(12,13)                1.463          estimate D2E/DX2                !
 ! R13   R(12,14)                1.089          estimate D2E/DX2                !
 ! R14   R(13,15)                1.302          estimate D2E/DX2                !
 ! R15   R(13,16)                1.4129         estimate D2E/DX2                !
 ! R16   R(16,17)                1.4252         estimate D2E/DX2                !
 ! R17   R(16,18)                1.4133         estimate D2E/DX2                !
 ! R18   R(17,19)                1.3543         estimate D2E/DX2                !
 ! R19   R(17,20)                1.383          estimate D2E/DX2                !
 ! R20   R(18,21)                1.3854         estimate D2E/DX2                !
 ! R21   R(18,22)                1.0855         estimate D2E/DX2                !
 ! R22   R(19,23)                0.9732         estimate D2E/DX2                !
 ! R23   R(20,24)                1.084          estimate D2E/DX2                !
 ! R24   R(20,25)                1.3955         estimate D2E/DX2                !
 ! R25   R(21,25)                1.3917         estimate D2E/DX2                !
 ! R26   R(21,27)                1.44           estimate D2E/DX2                !
 ! R27   R(25,26)                1.0836         estimate D2E/DX2                !
 ! R28   R(27,28)                1.4181         estimate D2E/DX2                !
 ! R29   R(28,29)                1.0977         estimate D2E/DX2                !
 ! R30   R(28,30)                1.0977         estimate D2E/DX2                !
 ! R31   R(28,31)                1.091          estimate D2E/DX2                !
 ! A1    A(2,1,3)              108.9338         estimate D2E/DX2                !
 ! A2    A(2,1,6)              108.867          estimate D2E/DX2                !
 ! A3    A(2,1,7)              108.9076         estimate D2E/DX2                !
 ! A4    A(3,1,6)              110.6682         estimate D2E/DX2                !
 ! A5    A(3,1,7)              109.1899         estimate D2E/DX2                !
 ! A6    A(6,1,7)              110.2399         estimate D2E/DX2                !
 ! A7    A(5,4,6)              110.1648         estimate D2E/DX2                !
 ! A8    A(5,4,8)              108.9928         estimate D2E/DX2                !
 ! A9    A(5,4,9)              108.9453         estimate D2E/DX2                !
 ! A10   A(6,4,8)              109.8544         estimate D2E/DX2                !
 ! A11   A(6,4,9)              109.9156         estimate D2E/DX2                !
 ! A12   A(8,4,9)              108.9401         estimate D2E/DX2                !
 ! A13   A(1,6,4)              117.3994         estimate D2E/DX2                !
 ! A14   A(1,6,10)             121.2846         estimate D2E/DX2                !
 ! A15   A(4,6,10)             121.3125         estimate D2E/DX2                !
 ! A16   A(6,10,11)            115.8813         estimate D2E/DX2                !
 ! A17   A(6,10,12)            126.1088         estimate D2E/DX2                !
 ! A18   A(11,10,12)           118.0081         estimate D2E/DX2                !
 ! A19   A(10,12,13)           119.3966         estimate D2E/DX2                !
 ! A20   A(10,12,14)           120.0907         estimate D2E/DX2                !
 ! A21   A(13,12,14)           119.165          estimate D2E/DX2                !
 ! A22   A(12,13,15)           102.8087         estimate D2E/DX2                !
 ! A23   A(12,13,16)           128.4809         estimate D2E/DX2                !
 ! A24   A(15,13,16)           128.5956         estimate D2E/DX2                !
 ! A25   A(13,16,17)           120.2358         estimate D2E/DX2                !
 ! A26   A(13,16,18)           122.1746         estimate D2E/DX2                !
 ! A27   A(17,16,18)           117.5862         estimate D2E/DX2                !
 ! A28   A(16,17,19)           121.0301         estimate D2E/DX2                !
 ! A29   A(16,17,20)           120.3582         estimate D2E/DX2                !
 ! A30   A(19,17,20)           118.6116         estimate D2E/DX2                !
 ! A31   A(16,18,21)           121.4123         estimate D2E/DX2                !
 ! A32   A(16,18,22)           118.8255         estimate D2E/DX2                !
 ! A33   A(21,18,22)           119.7619         estimate D2E/DX2                !
 ! A34   A(17,19,23)           108.5654         estimate D2E/DX2                !
 ! A35   A(17,20,24)           118.1609         estimate D2E/DX2                !
 ! A36   A(17,20,25)           120.7753         estimate D2E/DX2                !
 ! A37   A(24,20,25)           121.0636         estimate D2E/DX2                !
 ! A38   A(18,21,25)           119.9847         estimate D2E/DX2                !
 ! A39   A(18,21,27)           120.0077         estimate D2E/DX2                !
 ! A40   A(25,21,27)           120.0077         estimate D2E/DX2                !
 ! A41   A(20,25,21)           119.8812         estimate D2E/DX2                !
 ! A42   A(20,25,26)           119.6531         estimate D2E/DX2                !
 ! A43   A(21,25,26)           120.465          estimate D2E/DX2                !
 ! A44   A(21,27,28)           118.1923         estimate D2E/DX2                !
 ! A45   A(27,28,29)           111.7263         estimate D2E/DX2                !
 ! A46   A(27,28,30)           111.7263         estimate D2E/DX2                !
 ! A47   A(27,28,31)           106.0557         estimate D2E/DX2                !
 ! A48   A(29,28,30)           108.9504         estimate D2E/DX2                !
 ! A49   A(29,28,31)           109.1492         estimate D2E/DX2                !
 ! A50   A(30,28,31)           109.1492         estimate D2E/DX2                !
 ! D1    D(2,1,6,4)             -4.923          estimate D2E/DX2                !
 ! D2    D(2,1,6,10)           175.7487         estimate D2E/DX2                !
 ! D3    D(3,1,6,4)            114.7731         estimate D2E/DX2                !
 ! D4    D(3,1,6,10)           -64.5552         estimate D2E/DX2                !
 ! D5    D(7,1,6,4)           -124.3281         estimate D2E/DX2                !
 ! D6    D(7,1,6,10)            56.3436         estimate D2E/DX2                !
 ! D7    D(5,4,6,1)            -59.3967         estimate D2E/DX2                !
 ! D8    D(5,4,6,10)           119.9315         estimate D2E/DX2                !
 ! D9    D(8,4,6,1)           -179.4772         estimate D2E/DX2                !
 ! D10   D(8,4,6,10)            -0.1491         estimate D2E/DX2                !
 ! D11   D(9,4,6,1)             60.6637         estimate D2E/DX2                !
 ! D12   D(9,4,6,10)          -120.0081         estimate D2E/DX2                !
 ! D13   D(1,6,10,11)         -178.5958         estimate D2E/DX2                !
 ! D14   D(1,6,10,12)            1.9001         estimate D2E/DX2                !
 ! D15   D(4,6,10,11)            2.1022         estimate D2E/DX2                !
 ! D16   D(4,6,10,12)         -177.4019         estimate D2E/DX2                !
 ! D17   D(6,10,12,13)        -172.9071         estimate D2E/DX2                !
 ! D18   D(6,10,12,14)          -6.2678         estimate D2E/DX2                !
 ! D19   D(11,10,12,13)          7.5982         estimate D2E/DX2                !
 ! D20   D(11,10,12,14)        174.2375         estimate D2E/DX2                !
 ! D21   D(10,12,13,15)         84.1857         estimate D2E/DX2                !
 ! D22   D(10,12,13,16)        -99.4827         estimate D2E/DX2                !
 ! D23   D(14,12,13,15)        -82.578          estimate D2E/DX2                !
 ! D24   D(14,12,13,16)         93.7536         estimate D2E/DX2                !
 ! D25   D(12,13,16,17)       -177.9842         estimate D2E/DX2                !
 ! D26   D(12,13,16,18)          2.7089         estimate D2E/DX2                !
 ! D27   D(15,13,16,17)         -2.5628         estimate D2E/DX2                !
 ! D28   D(15,13,16,18)        178.1303         estimate D2E/DX2                !
 ! D29   D(13,16,17,19)          1.0738         estimate D2E/DX2                !
 ! D30   D(13,16,17,20)       -178.808          estimate D2E/DX2                !
 ! D31   D(18,16,17,19)       -179.588          estimate D2E/DX2                !
 ! D32   D(18,16,17,20)          0.5301         estimate D2E/DX2                !
 ! D33   D(13,16,18,21)        178.8526         estimate D2E/DX2                !
 ! D34   D(13,16,18,22)         -1.3517         estimate D2E/DX2                !
 ! D35   D(17,16,18,21)         -0.4718         estimate D2E/DX2                !
 ! D36   D(17,16,18,22)        179.3239         estimate D2E/DX2                !
 ! D37   D(16,17,19,23)          0.8551         estimate D2E/DX2                !
 ! D38   D(20,17,19,23)       -179.261          estimate D2E/DX2                !
 ! D39   D(16,17,20,24)        179.937          estimate D2E/DX2                !
 ! D40   D(16,17,20,25)         -0.2385         estimate D2E/DX2                !
 ! D41   D(19,17,20,24)          0.0524         estimate D2E/DX2                !
 ! D42   D(19,17,20,25)        179.8769         estimate D2E/DX2                !
 ! D43   D(16,18,21,25)          0.1159         estimate D2E/DX2                !
 ! D44   D(16,18,21,27)       -179.8841         estimate D2E/DX2                !
 ! D45   D(22,18,21,25)       -179.6779         estimate D2E/DX2                !
 ! D46   D(22,18,21,27)          0.3221         estimate D2E/DX2                !
 ! D47   D(17,20,25,21)         -0.133          estimate D2E/DX2                !
 ! D48   D(17,20,25,26)       -179.823          estimate D2E/DX2                !
 ! D49   D(24,20,25,21)        179.6863         estimate D2E/DX2                !
 ! D50   D(24,20,25,26)         -0.0036         estimate D2E/DX2                !
 ! D51   D(18,21,25,20)          0.1956         estimate D2E/DX2                !
 ! D52   D(18,21,25,26)        179.883          estimate D2E/DX2                !
 ! D53   D(27,21,25,20)       -179.8044         estimate D2E/DX2                !
 ! D54   D(27,21,25,26)         -0.117          estimate D2E/DX2                !
 ! D55   D(18,21,27,28)       -158.1995         estimate D2E/DX2                !
 ! D56   D(25,21,27,28)         21.8005         estimate D2E/DX2                !
 ! D57   D(21,27,28,29)        -61.1755         estimate D2E/DX2                !
 ! D58   D(21,27,28,30)         61.1755         estimate D2E/DX2                !
 ! D59   D(21,27,28,31)        180.0            estimate D2E/DX2                !
 --------------------------------------------------------------------------------
 Trust Radius=3.00D-01 FncErr=1.00D-07 GrdErr=1.00D-06
 Number of steps in this run=    150 maximum allowed number of steps=    186.
 GradGradGradGradGradGradGradGradGradGradGradGradGradGradGradGradGradGrad

                          Input orientation:                          
 ---------------------------------------------------------------------
 Center     Atomic      Atomic             Coordinates (Angstroms)
 Number     Number       Type             X           Y           Z
 ---------------------------------------------------------------------
      1          6           0       -0.139506    0.686774    6.031758
      2          1           0        0.504767    1.441350    5.584134
      3          1           0       -0.606934    1.105140    6.926365
      4          6           0       -1.182334    1.016260    3.798519
      5          1           0       -1.351153    2.080913    3.978507
      6          7           0       -1.150258    0.293709    5.059625
      7          1           0        0.468475   -0.175264    6.314161
      8          1           0       -1.984990    0.631233    3.172162
      9          1           0       -0.231880    0.891472    3.273698
     10          6           0       -2.018251   -0.678658    5.321027
     11          1           0       -2.717202   -0.915398    4.526570
     12          6           0       -2.110270   -1.395163    6.503753
     13          6           0       -3.017162   -2.540626    6.580753
     14          1           0       -1.368369   -1.251969    7.288027
     15          8           0       -2.301975   -3.508899    6.084526
     16          6           0       -4.314965   -2.598711    7.136301
     17          6           0       -5.033204   -3.829566    7.154992
     18          6           0       -4.954584   -1.459466    7.675255
     19          8           0       -4.483714   -4.966026    6.664402
     20          6           0       -6.313224   -3.884074    7.675835
     21          6           0       -6.236940   -1.529493    8.194919
     22          1           0       -4.421583   -0.513836    7.681391
     23          1           0       -3.585136   -4.764844    6.349450
     24          1           0       -6.827201   -4.838487    7.671272
     25          6           0       -6.921950   -2.740880    8.195513
     26          1           0       -7.924539   -2.804923    8.601726
     27          8           0       -6.860862   -0.349081    8.734316
     28          6           0       -7.926176   -0.515754    9.655307
     29          1           0       -8.772022   -1.051758    9.205576
     30          1           0       -7.603441   -1.051758   10.557279
     31          1           0       -8.246084    0.489973    9.931875
 ---------------------------------------------------------------------
                    Distance matrix (angstroms):
                    1          2          3          4          5
     1  C    0.000000
     2  H    1.088504   0.000000
     3  H    1.092630   1.774965   0.000000
     4  C    2.486646   2.493077   3.181573   0.000000
     5  H    2.761802   2.536044   3.193096   1.092878   0.000000
     6  N    1.456421   2.081177   2.106737   1.453787   2.098398
     7  H    1.092017   1.774175   1.780655   3.236256   3.722454
     8  H    3.403849   3.559886   4.027116   1.088497   1.775814
     9  H    2.767188   2.486590   3.678083   1.092873   1.778847
    10  C    2.428832   3.305946   2.784037   2.426836   3.140480
    11  H    3.387781   4.129623   3.780849   2.572388   3.338314
    12  C    2.905366   3.966097   2.947904   3.740898   4.363053
    13  C    4.358717   5.408638   4.384091   4.874306   5.559307
    14  H    2.616685   3.696736   2.503307   4.166070   4.696948
    15  O    4.720459   5.712544   4.987105   5.191964   6.048585
    16  C    5.426683   6.477741   5.245196   5.832854   6.376106
    17  C    6.753315   7.805080   6.632907   7.041104   7.653843
    18  C    5.521993   6.526257   5.102950   5.948796   6.259788
    19  O    7.157271   8.191849   7.208128   7.409463   8.166169
    20  C    7.855599   8.900582   7.616804   8.085350   8.594967
    21  C    6.838845   7.816183   6.344091   7.166466   7.394868
    22  H    4.743304   5.700014   4.212208   5.283051   5.465493
    23  H    6.457045   7.471938   6.607513   6.760316   7.581322
    24  H    8.828464   9.876753   8.635584   9.007819   9.565653
    25  C    7.901405   8.914397   7.502135   8.148181   8.489205
    26  H    8.910860   9.909081   8.464205   9.117542   9.405049
    27  O    7.318022   8.208641   6.670462   7.646694   7.673297
    28  C    8.672278   9.564806   7.977827   9.062474   9.066403
    29  H    9.360340  10.265927   8.747324   9.545488   9.602353
    30  H    8.900178   9.833148   8.172323   9.549249   9.601301
    31  H    8.998125   9.817605   8.232141   9.369717   9.247365
                    6          7          8          9         10
     6  N    0.000000
     7  H    2.100974   0.000000
     8  H    2.091224   4.067196   0.000000
     9  H    2.095298   3.297399   1.775226   0.000000
    10  C    1.329376   2.724615   2.516852   3.138150   0.000000
    11  H    2.049732   3.727173   2.182343   3.318327   1.084316
    12  C    2.420623   2.859025   3.901471   4.380674   1.385889
    13  C    3.719222   4.220862   4.769126   5.520299   2.460012
    14  H    2.720748   2.341304   4.568043   4.690499   2.149447
    15  O    4.103255   4.340651   5.071788   5.616877   2.945114
    16  C    4.763827   5.424971   5.619228   6.616091   3.500960
    17  C    6.038976   6.658032   6.712173   7.772088   4.730919
    18  C    4.938425   5.736839   5.785098   6.870556   3.843709
    19  O    6.430556   6.899148   7.054691   7.992825   5.124909
    20  C    7.138252   7.848622   7.707443   8.897606   5.853768
    21  C    6.247277   7.094630   6.926464   8.132665   5.174989
    22  H    4.269350   5.088872   5.251792   6.241495   3.372609
    23  H    5.760316   6.123500   6.463225   7.259372   4.495520
    24  H    8.086273   8.764376   8.579443   9.781071   6.778925
    25  C    7.235672   8.046133   7.808891   9.065058   6.046627
    26  H    8.248569   9.087945   8.750176  10.061224   7.082953
    27  O    6.821109   7.720527   7.461414   8.677599   5.933805
    28  C    8.227308   9.041535   8.868170  10.094920   7.329127
    29  H    8.780119   9.721899   9.235711  10.578155   7.800151
    30  H    8.583592   9.161229   9.430769  10.543558   7.664978
    31  H    8.609767   9.459067   9.214932  10.426888   7.836551
                   11         12         13         14         15
    11  H    0.000000
    12  C    2.123156   0.000000
    13  C    2.636477   1.463034   0.000000
    14  H    3.091646   1.089040   2.208935   0.000000
    15  O    3.053832   2.163419   1.302032   2.722824   0.000000
    16  C    3.492433   2.590236   1.412905   3.243326   2.446794
    17  C    4.556846   3.859271   2.460801   4.482490   2.950989
    18  C    3.900783   3.076796   2.473953   3.613023   3.710381
    19  O    4.909020   4.290700   2.835549   4.887587   2.686905
    20  C    5.626925   5.023273   3.723987   5.615155   4.331644
    21  C    5.120786   4.461781   3.740975   4.960086   4.884235
    22  H    3.608194   2.739660   2.700311   3.165705   4.001639
    23  H    4.346773   3.681547   2.307215   4.258553   1.814961
    24  H    6.493987   5.955587   4.581025   6.542846   4.976267
    25  C    5.871408   5.274966   4.230239   5.820880   5.137148
    26  H    6.877031   6.339924   5.313806   6.864462   6.200412
    27  O    5.932601   5.351432   4.920847   5.751038   6.147299
    28  C    7.321002   6.673112   6.136075   7.010768   7.303495
    29  H    7.653270   7.196994   6.498065   7.650566   7.592102
    30  H    7.762949   6.835490   6.250075   7.043026   7.358573
    31  H    7.858812   7.276948   6.910584   7.571477   8.131759
                   16         17         18         19         20
    16  C    0.000000
    17  C    1.425209   0.000000
    18  C    1.413316   2.427803   0.000000
    19  O    2.419782   1.354311   3.679607   0.000000
    20  C    2.436451   1.383004   2.779321   2.353874   0.000000
    21  C    2.440878   2.796563   1.385421   4.150427   2.412326
    22  H    2.157590   3.412513   1.085515   4.567288   3.864821
    23  H    2.417420   1.902773   3.815583   0.973196   3.158721
    24  H    3.407950   2.122002   3.863223   2.553818   1.084019
    25  C    2.817537   2.415633   2.404832   3.638759   1.395530
    26  H    3.901156   3.391571   3.389578   4.501429   2.148994
    27  O    3.754474   4.236552   2.447133   5.590309   3.730478
    28  C    4.870826   5.059863   3.693448   6.371890   4.226761
    29  H    5.151730   5.089192   4.132910   6.337874   4.050656
    30  H    4.991015   5.088997   3.935573   6.341032   4.241390
    31  H    5.727906   6.057400   4.441466   7.389163   5.287528
                   21         22         23         24         25
    21  C    0.000000
    22  H    2.142613   0.000000
    23  H    4.572233   4.532635   0.000000
    24  H    3.401772   4.948708   3.501945   0.000000
    25  C    1.391653   3.387607   4.317257   2.164200   0.000000
    26  H    2.154113   4.285650   5.267301   2.491040   1.083649
    27  O    1.440000   2.661931   5.993073   4.613671   2.452497
    28  C    2.452329   4.022253   6.915785   4.881615   2.844408
    29  H    2.770614   4.640994   6.989153   4.525012   2.701135
    30  H    2.770614   4.322536   6.902145   4.823992   2.982533
    31  H    3.336453   4.549629   7.884878   5.959534   3.899576
                   26         27         28         29         30
    26  H    0.000000
    27  O    2.679580   0.000000
    28  C    2.519986   1.418062   0.000000
    29  H    2.038737   2.090066   1.097731   0.000000
    30  H    2.645917   2.090066   1.097731   1.786808   0.000000
    31  H    3.567776   2.014200   1.091017   1.783551   1.783551
                   31
    31  H    0.000000
 Stoichiometry    C12H15NO3
 Framework group  C1[X(C12H15NO3)]
 Deg. of freedom    87
 Full point group                 C1      NOp   1
 Largest Abelian subgroup         C1      NOp   1
 Largest concise Abelian subgroup C1      NOp   1
                         Standard orientation:                         
 ---------------------------------------------------------------------
 Center     Atomic      Atomic             Coordinates (Angstroms)
 Number     Number       Type             X           Y           Z
 ---------------------------------------------------------------------
      1          6           0        4.323921   -1.118064   -1.118811
      2          1           0        5.306249   -1.575579   -1.016095
      3          1           0        3.648994   -1.831288   -1.598004
      4          6           0        4.638609   -1.148525    1.347654
      5          1           0        4.755367   -2.234918    1.369972
      6          7           0        3.833151   -0.754455    0.203345
      7          1           0        4.411534   -0.229075   -1.746922
      8          1           0        4.156210   -0.825092    2.268257
      9          1           0        5.627041   -0.686668    1.283918
     10          6           0        2.686552   -0.099785    0.358131
     11          1           0        2.416593    0.147182    1.378852
     12          6           0        1.818710    0.278068   -0.654175
     13          6           0        0.672657    1.130277   -0.336730
     14          1           0        2.098758    0.131780   -1.696375
     15          8           0        1.184828    2.326889   -0.369725
     16          6           0       -0.673430    0.753032   -0.131707
     17          6           0       -1.664530    1.743393    0.129299
     18          6           0       -1.089333   -0.597393   -0.160692
     19          8           0       -1.344585    3.058891    0.164783
     20          6           0       -2.978383    1.375039    0.354702
     21          6           0       -2.409504   -0.951366    0.065676
     22          1           0       -0.353058   -1.367435   -0.368728
     23          1           0       -0.394249    3.151823   -0.023195
     24          1           0       -3.702636    2.157428    0.550715
     25          6           0       -3.358541    0.032589    0.326174
     26          1           0       -4.393632   -0.235369    0.502468
     27          8           0       -2.799586   -2.337102    0.031423
     28          6           0       -4.164014   -2.643370   -0.204028
     29          1           0       -4.814209   -2.228850    0.577275
     30          1           0       -4.500700   -2.273635   -1.181244
     31          1           0       -4.235851   -3.731916   -0.189113
 ---------------------------------------------------------------------
 Rotational constants (GHZ):      0.7531039      0.2684044      0.2101964
 Standard basis: 6-311++G(d,p) (5D, 7F)
 There are   473 symmetry adapted cartesian basis functions of A   symmetry.
 There are   457 symmetry adapted basis functions of A   symmetry.
   457 basis functions,   711 primitive gaussians,   473 cartesian basis functions
    59 alpha electrons       59 beta electrons
       nuclear repulsion energy      1050.4959013267 Hartrees.
 NAtoms=   31 NActive=   31 NUniq=   31 SFac= 1.00D+00 NAtFMM=   60 NAOKFM=F Big=F
 Integral buffers will be    131072 words long.
 Raffenetti 1 integral format.
 Two-electron integral symmetry is turned on.
 Nuclear repulsion after empirical dispersion term =     1050.4779121410 Hartrees.
 One-electron integrals computed using PRISM.
 NBasis=   457 RedAO= T EigKep=  1.41D-06  NBF=   457
 NBsUse=   455 1.00D-06 EigRej=  4.61D-07 NBFU=   455
 ExpMin= 3.60D-02 ExpMax= 8.59D+03 ExpMxC= 1.30D+03 IAcc=3 IRadAn=         5 AccDes= 0.00D+00
 Harris functional with IExCor= 4639 and IRadAn=       5 diagonalized for initial guess.
 HarFok:  IExCor= 4639 AccDes= 0.00D+00 IRadAn=         5 IDoV= 1 UseB2=F ITyADJ=14
 ICtDFT=  3500011 ScaDFX=  1.000000  1.000000  1.000000  1.000000
 FoFCou: FMM=F IPFlag=           0 FMFlag=      100000 FMFlg1=           0
         NFxFlg=           0 DoJE=T BraDBF=F KetDBF=T FulRan=T
         wScrn=  0.000000 ICntrl=     500 IOpCl=  0 I1Cent=   200000004 NGrid=           0
         NMat0=    1 NMatS0=      1 NMatT0=    0 NMatD0=    1 NMtDS0=    0 NMtDT0=    0
 Petite list used in FoFCou.
 Requested convergence on RMS density matrix=1.00D-08 within 128 cycles.
 Requested convergence on MAX density matrix=1.00D-06.
 Requested convergence on             energy=1.00D-06.
 No special actions if energy rises.
 SCF Done:  E(RwB97XD) =  -746.615830001     A.U. after   18 cycles
            NFock= 18  Conv=0.82D-08     -V/T= 2.0043
 DoSCS=F DFT=T ScalE2(SS,OS)=  1.000000  1.000000
 ExpMin= 3.60D-02 ExpMax= 8.59D+03 ExpMxC= 1.30D+03 IAcc=3 IRadAn=         5 AccDes= 0.00D+00
 HarFok:  IExCor=  205 AccDes= 0.00D+00 IRadAn=         5 IDoV=-2 UseB2=F ITyADJ=14
 ICtDFT= 12500011 ScaDFX=  1.000000  1.000000  1.000000  1.000000
 Range of M.O.s used for correlation:    17   455
 NBasis=   457 NAE=    59 NBE=    59 NFC=    16 NFV=     0
 NROrb=    439 NOA=    43 NOB=    43 NVA=   396 NVB=   396

 **** Warning!!: The largest alpha MO coefficient is  0.17509855D+03

 Would need an additional         29152300000 words for in-memory AO integral storage.
 Orbital symmetries:
       Occupied  (A) (A) (A) (A) (A) (A) (A) (A) (A) (A) (A) (A)
                 (A) (A) (A) (A) (A) (A) (A) (A) (A) (A) (A) (A)
                 (A) (A) (A) (A) (A) (A) (A) (A) (A) (A) (A) (A)
                 (A) (A) (A) (A) (A) (A) (A) (A) (A) (A) (A) (A)
                 (A) (A) (A) (A) (A) (A) (A) (A) (A) (A) (A)
       Virtual   (A) (A) (A) (A) (A) (A) (A) (A) (A) (A) (A) (A)
                 (A) (A) (A) (A) (A) (A) (A) (A) (A) (A) (A) (A)
                 (A) (A) (A) (A) (A) (A) (A) (A) (A) (A) (A) (A)
                 (A) (A) (A) (A) (A) (A) (A) (A) (A) (A) (A) (A)
                 (A) (A) (A) (A) (A) (A) (A) (A) (A) (A) (A) (A)
                 (A) (A) (A) (A) (A) (A) (A) (A) (A) (A) (A) (A)
                 (A) (A) (A) (A) (A) (A) (A) (A) (A) (A) (A) (A)
                 (A) (A) (A) (A) (A) (A) (A) (A) (A) (A) (A) (A)
                 (A) (A) (A) (A) (A) (A) (A) (A) (A) (A) (A) (A)
                 (A) (A) (A) (A) (A) (A) (A) (A) (A) (A) (A) (A)
                 (A) (A) (A) (A) (A) (A) (A) (A) (A) (A) (A) (A)
                 (A) (A) (A) (A) (A) (A) (A) (A) (A) (A) (A) (A)
                 (A) (A) (A) (A) (A) (A) (A) (A) (A) (A) (A) (A)
                 (A) (A) (A) (A) (A) (A) (A) (A) (A) (A) (A) (A)
                 (A) (A) (A) (A) (A) (A) (A) (A) (A) (A) (A) (A)
                 (A) (A) (A) (A) (A) (A) (A) (A) (A) (A) (A) (A)
                 (A) (A) (A) (A) (A) (A) (A) (A) (A) (A) (A) (A)
                 (A) (A) (A) (A) (A) (A) (A) (A) (A) (A) (A) (A)
                 (A) (A) (A) (A) (A) (A) (A) (A) (A) (A) (A) (A)
                 (A) (A) (A) (A) (A) (A) (A) (A) (A) (A) (A) (A)
                 (A) (A) (A) (A) (A) (A) (A) (A) (A) (A) (A) (A)
                 (A) (A) (A) (A) (A) (A) (A) (A) (A) (A) (A) (A)
                 (A) (A) (A) (A) (A) (A) (A) (A) (A) (A) (A) (A)
                 (A) (A) (A) (A) (A) (A) (A) (A) (A) (A) (A) (A)
                 (A) (A) (A) (A) (A) (A) (A) (A) (A) (A) (A) (A)
                 (A) (A) (A) (A) (A) (A) (A) (A) (A) (A) (A) (A)
                 (A) (A) (A) (A) (A) (A) (A) (A) (A) (A) (A) (A)
                 (A) (A) (A) (A) (A) (A) (A) (A) (A) (A) (A) (A)
                 (A) (A) (A) (A) (A) (A) (A) (A) (A) (A) (A) (A)
                 (A) (A) (A) (A) (A) (A) (A) (A) (A) (A) (A) (A)
                 (A) (A) (A) (A) (A) (A) (A) (A) (A) (A) (A) (A)
                 (A) (A) (A) (A) (A) (A) (A) (A) (A) (A) (A) (A)
                 (A) (A) (A) (A) (A) (A) (A) (A) (A) (A) (A) (A)
     8 initial guesses have been made.
 Convergence on wavefunction:    0.000001000000000
 Iteration     1 Dimension     8 NMult     0 NNew      8
 CISAX will form     8 AO SS matrices at one time.
 Iteration     2 Dimension    12 NMult     8 NNew      4
 Iteration     3 Dimension    16 NMult    12 NNew      4
 Iteration     4 Dimension    20 NMult    16 NNew      4
 Iteration     5 Dimension    24 NMult    20 NNew      4
 Iteration     6 Dimension    28 NMult    24 NNew      4
 Iteration     7 Dimension    32 NMult    28 NNew      4
 Iteration     8 Dimension    36 NMult    32 NNew      4
 Iteration     9 Dimension    40 NMult    36 NNew      4
 Iteration    10 Dimension    44 NMult    40 NNew      4
 Iteration    11 Dimension    48 NMult    44 NNew      4
 ***********************************************************************
 Excited states from <AA,BB:AA,BB> singles matrix:
 ***********************************************************************
 
 Ground to excited state transition densities written to RWF  633
 Ground to excited state transition electric dipole moments (Au):
       state          X           Y           Z        Dip. S.      Osc.
         1        -0.0325     -0.0263      0.0235      0.0023      0.0001
 Ground to excited state transition velocity dipole moments (Au):
       state          X           Y           Z        Dip. S.      Osc.
         1         0.0034      0.0053      0.0012      0.0000      0.0003
 Ground to excited state transition magnetic dipole moments (Au):
       state          X           Y           Z
         1        -0.2235     -0.3143      0.0084
 Ground to excited state transition velocity quadrupole moments (Au):
       state          XX          YY          ZZ          XY          XZ          YZ
         1        -0.0037      0.0080     -0.0079      0.0192      0.0007     -0.0015
 <0|del|b> * <b|rxdel|0> + <0|del|b> * <b|delr+rdel|0>
 Rotatory Strengths (R) in cgs (10**-40 erg-esu-cm/Gauss)
       state          XX          YY          ZZ    R(velocity)    E-M Angle
         1        -6.9668     -3.3477    -10.3256     -6.8801      167.38
 1/2[<0|r|b>*<b|rxdel|0> + (<0|rxdel|b>*<b|r|0>)*]
 Rotatory Strengths (R) in cgs (10**-40 erg-esu-cm/Gauss)
       state          XX          YY          ZZ     R(length)
         1        -5.1326     -5.8377     -0.1397     -3.7033
  1/2[<0|del|b>*<b|r|0> + (<0|r|b>*<b|del|0>)*] (Au)
       state          X           Y           Z        Dip. S.   Osc.(frdel)
         1        -0.0001     -0.0001      0.0000      0.0002      0.0001

 Excitation energies and oscillator strengths:
 
 Excited State   1:      Singlet-A      2.2470 eV  551.78 nm  f=0.0001  <S**2>=0.000
      57 -> 60         0.14358
      59 -> 60         0.65989
      59 -> 76        -0.10992
 This state for optimization and/or second-order correction.
 Total Energy, E(TD-HF/TD-KS) =  -746.533254585    
 Copying the excited state density for this state as the 1-particle RhoCI density.
 SavETr:  write IOETrn=   770 NScale= 10 NData=  16 NLR=1 NState=    1 LETran=      28.
          IDoAtm=1111111111111111111111111111111
          Differentiating once with respect to electric field.
                with respect to dipole field.
          Differentiating once with respect to nuclear coordinates.
          There are     1 degrees of freedom in the 1st order CPHF.  IDoFFX=0 NUNeed=     1.
 LinEq1:  Iter=  0 NonCon=     1 RMS=5.16D-03 Max=1.22D-01 NDo=     1
 AX will form     1 AO Fock derivatives at one time.
 LinEq1:  Iter=  1 NonCon=     1 RMS=2.19D-03 Max=1.12D-01 NDo=     1
 LinEq1:  Iter=  2 NonCon=     1 RMS=1.61D-03 Max=4.85D-02 NDo=     1
 LinEq1:  Iter=  3 NonCon=     1 RMS=6.94D-04 Max=3.77D-02 NDo=     1
 LinEq1:  Iter=  4 NonCon=     1 RMS=4.74D-04 Max=1.86D-02 NDo=     1
 LinEq1:  Iter=  5 NonCon=     1 RMS=2.34D-04 Max=1.31D-02 NDo=     1
 LinEq1:  Iter=  6 NonCon=     1 RMS=1.25D-04 Max=7.20D-03 NDo=     1
 LinEq1:  Iter=  7 NonCon=     1 RMS=5.86D-05 Max=2.98D-03 NDo=     1
 LinEq1:  Iter=  8 NonCon=     1 RMS=3.09D-05 Max=1.67D-03 NDo=     1
 LinEq1:  Iter=  9 NonCon=     1 RMS=1.59D-05 Max=7.73D-04 NDo=     1
 LinEq1:  Iter= 10 NonCon=     1 RMS=8.00D-06 Max=4.28D-04 NDo=     1
 LinEq1:  Iter= 11 NonCon=     1 RMS=4.01D-06 Max=1.80D-04 NDo=     1
 LinEq1:  Iter= 12 NonCon=     1 RMS=1.73D-06 Max=5.48D-05 NDo=     1
 LinEq1:  Iter= 13 NonCon=     1 RMS=9.68D-07 Max=5.05D-05 NDo=     1
 LinEq1:  Iter= 14 NonCon=     1 RMS=4.57D-07 Max=1.50D-05 NDo=     1
 LinEq1:  Iter= 15 NonCon=     1 RMS=1.91D-07 Max=8.42D-06 NDo=     1
 LinEq1:  Iter= 16 NonCon=     1 RMS=7.57D-08 Max=1.80D-06 NDo=     1
 LinEq1:  Iter= 17 NonCon=     1 RMS=3.18D-08 Max=1.06D-06 NDo=     1
 LinEq1:  Iter= 18 NonCon=     1 RMS=1.28D-08 Max=2.67D-07 NDo=     1
 LinEq1:  Iter= 19 NonCon=     1 RMS=4.88D-09 Max=1.14D-07 NDo=     1
 LinEq1:  Iter= 20 NonCon=     1 RMS=2.60D-09 Max=1.04D-07 NDo=     1
 LinEq1:  Iter= 21 NonCon=     1 RMS=1.06D-09 Max=1.47D-08 NDo=     1
 LinEq1:  Iter= 22 NonCon=     1 RMS=4.75D-10 Max=1.52D-08 NDo=     1
 LinEq1:  Iter= 23 NonCon=     1 RMS=2.06D-10 Max=6.70D-09 NDo=     1
 LinEq1:  Iter= 24 NonCon=     1 RMS=1.06D-10 Max=4.67D-09 NDo=     1
 LinEq1:  Iter= 25 NonCon=     1 RMS=4.96D-11 Max=2.66D-09 NDo=     1
 LinEq1:  Iter= 26 NonCon=     0 RMS=2.14D-11 Max=7.43D-10 NDo=     1
 Linear equations converged to 1.000D-10 1.000D-09 after    26 iterations.
 End of Minotr F.D. properties file   721 does not exist.
 End of Minotr F.D. properties file   722 does not exist.
 End of Minotr F.D. properties file   788 does not exist.

 **********************************************************************

            Population analysis using the SCF density.

 **********************************************************************

 Orbital symmetries:
       Occupied  (A) (A) (A) (A) (A) (A) (A) (A) (A) (A) (A) (A)
                 (A) (A) (A) (A) (A) (A) (A) (A) (A) (A) (A) (A)
                 (A) (A) (A) (A) (A) (A) (A) (A) (A) (A) (A) (A)
                 (A) (A) (A) (A) (A) (A) (A) (A) (A) (A) (A) (A)
                 (A) (A) (A) (A) (A) (A) (A) (A) (A) (A) (A)
       Virtual   (A) (A) (A) (A) (A) (A) (A) (A) (A) (A) (A) (A)
                 (A) (A) (A) (A) (A) (A) (A) (A) (A) (A) (A) (A)
                 (A) (A) (A) (A) (A) (A) (A) (A) (A) (A) (A) (A)
                 (A) (A) (A) (A) (A) (A) (A) (A) (A) (A) (A) (A)
                 (A) (A) (A) (A) (A) (A) (A) (A) (A) (A) (A) (A)
                 (A) (A) (A) (A) (A) (A) (A) (A) (A) (A) (A) (A)
                 (A) (A) (A) (A) (A) (A) (A) (A) (A) (A) (A) (A)
                 (A) (A) (A) (A) (A) (A) (A) (A) (A) (A) (A) (A)
                 (A) (A) (A) (A) (A) (A) (A) (A) (A) (A) (A) (A)
                 (A) (A) (A) (A) (A) (A) (A) (A) (A) (A) (A) (A)
                 (A) (A) (A) (A) (A) (A) (A) (A) (A) (A) (A) (A)
                 (A) (A) (A) (A) (A) (A) (A) (A) (A) (A) (A) (A)
                 (A) (A) (A) (A) (A) (A) (A) (A) (A) (A) (A) (A)
                 (A) (A) (A) (A) (A) (A) (A) (A) (A) (A) (A) (A)
                 (A) (A) (A) (A) (A) (A) (A) (A) (A) (A) (A) (A)
                 (A) (A) (A) (A) (A) (A) (A) (A) (A) (A) (A) (A)
                 (A) (A) (A) (A) (A) (A) (A) (A) (A) (A) (A) (A)
                 (A) (A) (A) (A) (A) (A) (A) (A) (A) (A) (A) (A)
                 (A) (A) (A) (A) (A) (A) (A) (A) (A) (A) (A) (A)
                 (A) (A) (A) (A) (A) (A) (A) (A) (A) (A) (A) (A)
                 (A) (A) (A) (A) (A) (A) (A) (A) (A) (A) (A) (A)
                 (A) (A) (A) (A) (A) (A) (A) (A) (A) (A) (A) (A)
                 (A) (A) (A) (A) (A) (A) (A) (A) (A) (A) (A) (A)
                 (A) (A) (A) (A) (A) (A) (A) (A) (A) (A) (A) (A)
                 (A) (A) (A) (A) (A) (A) (A) (A) (A) (A) (A) (A)
                 (A) (A) (A) (A) (A) (A) (A) (A) (A) (A) (A) (A)
                 (A) (A) (A) (A) (A) (A) (A) (A) (A) (A) (A) (A)
                 (A) (A) (A) (A) (A) (A) (A) (A) (A) (A) (A) (A)
                 (A) (A) (A) (A) (A) (A) (A) (A) (A) (A) (A) (A)
                 (A) (A) (A) (A) (A) (A) (A) (A) (A) (A) (A) (A)
                 (A) (A) (A) (A) (A) (A) (A) (A) (A) (A) (A) (A)
                 (A) (A) (A) (A) (A) (A) (A) (A) (A) (A) (A) (A)
                 (A) (A) (A) (A) (A) (A) (A) (A) (A) (A) (A) (A)
 The electronic state is 1-A.
 Alpha  occ. eigenvalues --  -19.27687 -19.26868 -19.23350 -14.45790 -10.38121
 Alpha  occ. eigenvalues --  -10.36809 -10.35830 -10.34033 -10.32293 -10.32080
 Alpha  occ. eigenvalues --  -10.31910 -10.31438 -10.31264 -10.31167 -10.29912
 Alpha  occ. eigenvalues --  -10.26270  -1.16642  -1.15089  -1.11156  -1.06370
 Alpha  occ. eigenvalues --   -0.97481  -0.89227  -0.86439  -0.86095  -0.83356
 Alpha  occ. eigenvalues --   -0.79708  -0.78793  -0.75705  -0.70807  -0.68325
 Alpha  occ. eigenvalues --   -0.65409  -0.62622  -0.61828  -0.59961  -0.59094
 Alpha  occ. eigenvalues --   -0.57708  -0.56541  -0.55677  -0.54372  -0.53269
 Alpha  occ. eigenvalues --   -0.53119  -0.51865  -0.50645  -0.50256  -0.50181
 Alpha  occ. eigenvalues --   -0.49092  -0.48169  -0.48020  -0.47112  -0.45382
 Alpha  occ. eigenvalues --   -0.44697  -0.43135  -0.41733  -0.40442  -0.38539
 Alpha  occ. eigenvalues --   -0.34973  -0.34751  -0.29623  -0.25441
 Alpha virt. eigenvalues --   -0.01769   0.03503   0.03908   0.05118   0.05522
 Alpha virt. eigenvalues --    0.05795   0.05935   0.06497   0.07127   0.07486
 Alpha virt. eigenvalues --    0.07867   0.08174   0.08665   0.09294   0.09387
 Alpha virt. eigenvalues --    0.09939   0.10130   0.10921   0.11157   0.11564
 Alpha virt. eigenvalues --    0.12450   0.13030   0.13921   0.14383   0.14870
 Alpha virt. eigenvalues --    0.15049   0.15408   0.15671   0.16021   0.16533
 Alpha virt. eigenvalues --    0.16917   0.17224   0.17298   0.17661   0.17884
 Alpha virt. eigenvalues --    0.18162   0.18300   0.18423   0.19046   0.19358
 Alpha virt. eigenvalues --    0.19741   0.19964   0.20260   0.20480   0.20804
 Alpha virt. eigenvalues --    0.21585   0.21900   0.22082   0.22393   0.22981
 Alpha virt. eigenvalues --    0.23436   0.23805   0.24098   0.24147   0.24674
 Alpha virt. eigenvalues --    0.24973   0.25397   0.26309   0.26923   0.27321
 Alpha virt. eigenvalues --    0.27493   0.28265   0.28706   0.29179   0.29284
 Alpha virt. eigenvalues --    0.30057   0.30128   0.30848   0.31148   0.31389
 Alpha virt. eigenvalues --    0.31821   0.32391   0.33257   0.33406   0.34104
 Alpha virt. eigenvalues --    0.34297   0.34546   0.34800   0.35564   0.36221
 Alpha virt. eigenvalues --    0.36469   0.36501   0.37085   0.37360   0.37468
 Alpha virt. eigenvalues --    0.38011   0.38449   0.38847   0.39349   0.40214
 Alpha virt. eigenvalues --    0.40508   0.40721   0.41583   0.41760   0.42414
 Alpha virt. eigenvalues --    0.42894   0.43962   0.44346   0.45181   0.45272
 Alpha virt. eigenvalues --    0.46046   0.46457   0.48200   0.48420   0.50344
 Alpha virt. eigenvalues --    0.50837   0.51867   0.52270   0.53019   0.53685
 Alpha virt. eigenvalues --    0.54465   0.54556   0.57143   0.57227   0.58304
 Alpha virt. eigenvalues --    0.59456   0.60124   0.61857   0.62729   0.63004
 Alpha virt. eigenvalues --    0.65492   0.66132   0.67136   0.67922   0.68013
 Alpha virt. eigenvalues --    0.68372   0.68713   0.69331   0.69618   0.70930
 Alpha virt. eigenvalues --    0.71569   0.71739   0.72295   0.72703   0.73368
 Alpha virt. eigenvalues --    0.73744   0.74353   0.74575   0.75619   0.76553
 Alpha virt. eigenvalues --    0.77316   0.77861   0.78403   0.79452   0.79761
 Alpha virt. eigenvalues --    0.80290   0.80811   0.81890   0.82225   0.83318
 Alpha virt. eigenvalues --    0.83880   0.85171   0.86002   0.87154   0.90343
 Alpha virt. eigenvalues --    0.91635   0.92406   0.94472   0.95552   0.96556
 Alpha virt. eigenvalues --    0.97414   0.97715   0.98334   0.99241   1.00839
 Alpha virt. eigenvalues --    1.01496   1.02763   1.03127   1.05274   1.05771
 Alpha virt. eigenvalues --    1.06624   1.08875   1.09743   1.10114   1.10539
 Alpha virt. eigenvalues --    1.11076   1.12017   1.15073   1.15755   1.17633
 Alpha virt. eigenvalues --    1.18148   1.18570   1.19087   1.20459   1.21267
 Alpha virt. eigenvalues --    1.23247   1.23275   1.24942   1.27228   1.29439
 Alpha virt. eigenvalues --    1.30480   1.31009   1.34243   1.35989   1.36555
 Alpha virt. eigenvalues --    1.37703   1.39832   1.40104   1.41138   1.42798
 Alpha virt. eigenvalues --    1.46338   1.46752   1.50154   1.51200   1.52711
 Alpha virt. eigenvalues --    1.53228   1.53468   1.53661   1.54760   1.56897
 Alpha virt. eigenvalues --    1.59056   1.59674   1.61005   1.62182   1.63321
 Alpha virt. eigenvalues --    1.63889   1.64236   1.64561   1.65371   1.65852
 Alpha virt. eigenvalues --    1.67762   1.68139   1.69384   1.70657   1.71352
 Alpha virt. eigenvalues --    1.73541   1.74664   1.75669   1.77208   1.77736
 Alpha virt. eigenvalues --    1.78325   1.78902   1.79213   1.80652   1.81782
 Alpha virt. eigenvalues --    1.82329   1.84242   1.86104   1.86864   1.87584
 Alpha virt. eigenvalues --    1.89083   1.90350   1.92001   1.92546   1.95019
 Alpha virt. eigenvalues --    1.96543   1.97663   1.99490   2.01252   2.02461
 Alpha virt. eigenvalues --    2.04028   2.05203   2.05735   2.06919   2.07372
 Alpha virt. eigenvalues --    2.08860   2.11143   2.11727   2.12354   2.14237
 Alpha virt. eigenvalues --    2.15805   2.17536   2.18732   2.20936   2.21275
 Alpha virt. eigenvalues --    2.23611   2.24525   2.25516   2.26683   2.27660
 Alpha virt. eigenvalues --    2.27862   2.31647   2.33893   2.36776   2.38111
 Alpha virt. eigenvalues --    2.41720   2.42178   2.45433   2.50398   2.51001
 Alpha virt. eigenvalues --    2.52244   2.53013   2.54779   2.55326   2.57503
 Alpha virt. eigenvalues --    2.57905   2.58377   2.60889   2.61804   2.63397
 Alpha virt. eigenvalues --    2.63800   2.66272   2.67346   2.69168   2.70639
 Alpha virt. eigenvalues --    2.72911   2.73333   2.74817   2.75790   2.76993
 Alpha virt. eigenvalues --    2.77414   2.78669   2.80348   2.80919   2.82613
 Alpha virt. eigenvalues --    2.82960   2.84651   2.85605   2.86421   2.87365
 Alpha virt. eigenvalues --    2.89156   2.90966   2.93438   2.94430   2.97070
 Alpha virt. eigenvalues --    2.99305   3.00487   3.03396   3.03881   3.05443
 Alpha virt. eigenvalues --    3.06561   3.09089   3.11172   3.14153   3.14316
 Alpha virt. eigenvalues --    3.15044   3.16598   3.17477   3.18326   3.20498
 Alpha virt. eigenvalues --    3.21483   3.28657   3.29479   3.29958   3.30355
 Alpha virt. eigenvalues --    3.32664   3.36144   3.38281   3.38989   3.44930
 Alpha virt. eigenvalues --    3.48203   3.50031   3.57582   3.59613   3.67472
 Alpha virt. eigenvalues --    3.68440   3.71038   3.74202   3.75142   3.78078
 Alpha virt. eigenvalues --    3.83700   3.84429   3.87357   3.87773   3.91125
 Alpha virt. eigenvalues --    3.92005   3.95734   3.96460   4.03722   4.12585
 Alpha virt. eigenvalues --    4.15331   4.16553   4.18246   4.23198   4.26660
 Alpha virt. eigenvalues --    4.30381   4.36897   4.53776   4.93586   4.99810
 Alpha virt. eigenvalues --    5.13490   5.17449   5.18840   5.20446   5.43865
 Alpha virt. eigenvalues --    5.48147   5.57745   5.82197   5.83242   5.92551
 Alpha virt. eigenvalues --   23.69329  23.96556  24.00531  24.02498  24.04501
 Alpha virt. eigenvalues --   24.06902  24.08430  24.13365  24.15493  24.21063
 Alpha virt. eigenvalues --   24.27657  24.29578  35.72328  50.07793  50.10732
 Alpha virt. eigenvalues --   50.13876
          Condensed to atoms (all electrons):
               1          2          3          4          5          6
     1  C    5.181195   0.386550   0.386809  -0.070354   0.003544   0.233806
     2  H    0.386550   0.503380  -0.029300   0.008307  -0.006954  -0.053779
     3  H    0.386809  -0.029300   0.554031  -0.005010   0.001714  -0.069947
     4  C   -0.070354   0.008307  -0.005010   5.160757   0.408357   0.252488
     5  H    0.003544  -0.006954   0.001714   0.408357   0.585205  -0.062479
     6  N    0.233806  -0.053779  -0.069947   0.252488  -0.062479   6.920574
     7  H    0.438337  -0.011446  -0.050313   0.006390   0.001284  -0.048319
     8  H   -0.005073   0.004072  -0.002308   0.392642  -0.031258  -0.094607
     9  H   -0.000007  -0.003883   0.002105   0.429086  -0.070882  -0.062695
    10  C   -0.346722   0.030250   0.026004  -0.044718  -0.030277   0.253407
    11  H    0.007080  -0.001128   0.001266  -0.034158   0.007965  -0.080180
    12  C    0.370175   0.014488  -0.008076  -0.235748   0.011784  -0.314528
    13  C   -0.058321  -0.011088   0.015230  -0.008719   0.011398  -0.043457
    14  H    0.024235  -0.001345  -0.004201  -0.013162   0.002866  -0.044422
    15  O   -0.006575  -0.000571   0.000483  -0.001416  -0.000037   0.000100
    16  C   -0.206134  -0.015706   0.025106   0.051947   0.005987  -0.077338
    17  C   -0.038261  -0.002661   0.002897   0.008752   0.001084  -0.022420
    18  C    0.117612   0.007631  -0.022664   0.011641  -0.002227   0.084926
    19  O    0.000163   0.000008   0.000041  -0.000146   0.000000  -0.000212
    20  C    0.005313   0.000275  -0.003153   0.001368   0.000145  -0.007277
    21  C    0.006464   0.000351   0.007447  -0.000773  -0.000807   0.037916
    22  H    0.011969   0.001335  -0.008155   0.000607  -0.000839   0.012390
    23  H   -0.000665  -0.000068  -0.000011   0.000307  -0.000016   0.001156
    24  H    0.000013   0.000002  -0.000029  -0.000031  -0.000001  -0.000006
    25  C   -0.005183  -0.000367   0.003922   0.001781   0.000047  -0.000308
    26  H   -0.000045  -0.000003   0.000045   0.000029   0.000003  -0.000014
    27  O    0.000094   0.000008   0.000036  -0.000032  -0.000001   0.000108
    28  C   -0.000230  -0.000018   0.000047   0.000039   0.000005   0.000055
    29  H    0.000008   0.000001  -0.000007   0.000003  -0.000002   0.000009
    30  H   -0.000012  -0.000001   0.000005  -0.000008   0.000000  -0.000006
    31  H   -0.000036  -0.000004   0.000014   0.000008   0.000003  -0.000015
               7          8          9         10         11         12
     1  C    0.438337  -0.005073  -0.000007  -0.346722   0.007080   0.370175
     2  H   -0.011446   0.004072  -0.003883   0.030250  -0.001128   0.014488
     3  H   -0.050313  -0.002308   0.002105   0.026004   0.001266  -0.008076
     4  C    0.006390   0.392642   0.429086  -0.044718  -0.034158  -0.235748
     5  H    0.001284  -0.031258  -0.070882  -0.030277   0.007965   0.011784
     6  N   -0.048319  -0.094607  -0.062695   0.253407  -0.080180  -0.314528
     7  H    0.522000  -0.000904  -0.000654  -0.000476  -0.004631   0.021065
     8  H   -0.000904   0.552482  -0.019248   0.099687  -0.008247  -0.012897
     9  H   -0.000654  -0.019248   0.574704  -0.005413  -0.002080  -0.006178
    10  C   -0.000476   0.099687  -0.005413   8.937787   0.197095  -2.556850
    11  H   -0.004631  -0.008247  -0.002080   0.197095   0.548925   0.223546
    12  C    0.021065  -0.012897  -0.006178  -2.556850   0.223546  18.100336
    13  C   -0.053242  -0.008920  -0.006267  -1.187274   0.042622   2.110178
    14  H   -0.006501  -0.002950  -0.001638  -0.242202   0.025605   0.697953
    15  O   -0.000634   0.001707   0.000069   0.022289  -0.007370  -0.725752
    16  C   -0.000632  -0.003494   0.002351   1.611199   0.013192  -7.595432
    17  C    0.001124  -0.001216   0.000673   0.348080   0.029666  -2.806206
    18  C   -0.000954   0.000801  -0.002031  -0.608028  -0.074526  -0.053618
    19  O   -0.000122   0.000066  -0.000007  -0.005126  -0.001130  -0.018797
    20  C   -0.000623  -0.001486   0.000128  -0.263311   0.020200  -1.062242
    21  C    0.000043   0.004631  -0.000748   0.260792  -0.046222   0.594435
    22  H    0.000721   0.000426   0.000066  -0.084241  -0.005662   0.018665
    23  H    0.000244   0.000092   0.000024   0.008288  -0.002442   0.003054
    24  H   -0.000002   0.000006  -0.000001  -0.003265  -0.000001  -0.000350
    25  C    0.000310   0.000569  -0.000054   0.259686  -0.003663  -0.534220
    26  H    0.000003  -0.000007   0.000000   0.002943   0.000102  -0.003903
    27  O    0.000000   0.000011  -0.000001  -0.000728  -0.000287  -0.002673
    28  C    0.000026   0.000006   0.000002   0.004224  -0.000244  -0.022954
    29  H   -0.000001   0.000003   0.000000  -0.000363  -0.000061   0.000302
    30  H    0.000000   0.000003   0.000000   0.000117   0.000003   0.000122
    31  H    0.000005  -0.000004   0.000000   0.000464   0.000028  -0.001908
              13         14         15         16         17         18
     1  C   -0.058321   0.024235  -0.006575  -0.206134  -0.038261   0.117612
     2  H   -0.011088  -0.001345  -0.000571  -0.015706  -0.002661   0.007631
     3  H    0.015230  -0.004201   0.000483   0.025106   0.002897  -0.022664
     4  C   -0.008719  -0.013162  -0.001416   0.051947   0.008752   0.011641
     5  H    0.011398   0.002866  -0.000037   0.005987   0.001084  -0.002227
     6  N   -0.043457  -0.044422   0.000100  -0.077338  -0.022420   0.084926
     7  H   -0.053242  -0.006501  -0.000634  -0.000632   0.001124  -0.000954
     8  H   -0.008920  -0.002950   0.001707  -0.003494  -0.001216   0.000801
     9  H   -0.006267  -0.001638   0.000069   0.002351   0.000673  -0.002031
    10  C   -1.187274  -0.242202   0.022289   1.611199   0.348080  -0.608028
    11  H    0.042622   0.025605  -0.007370   0.013192   0.029666  -0.074526
    12  C    2.110178   0.697953  -0.725752  -7.595432  -2.806206  -0.053618
    13  C   15.977338   0.043619   0.792209  -2.675630  -0.798163  -2.832951
    14  H    0.043619   0.539504   0.004512  -0.067246   0.003138  -0.105826
    15  O    0.792209   0.004512   8.076506   0.043408   0.217980  -0.174787
    16  C   -2.675630  -0.067246   0.043408  21.512982   0.904149  -4.682220
    17  C   -0.798163   0.003138   0.217980   0.904149  29.732493 -13.653835
    18  C   -2.832951  -0.105826  -0.174787  -4.682220 -13.653835  28.976765
    19  O   -0.117853   0.000030  -0.027354   0.194767   0.234062   0.102080
    20  C   -4.004779   0.021453  -0.091056  -1.672649 -10.315177   8.350083
    21  C   -0.011777  -0.060864   0.003989  -3.501195   0.811337  -2.236462
    22  H   -0.071701  -0.004658  -0.004400  -0.473309  -0.245021   1.231316
    23  H    0.028045  -0.002050   0.093947  -0.230835   0.171536  -0.028482
    24  H   -0.019482   0.000102  -0.000096  -0.110151  -0.304758   0.139961
    25  C   -1.236435  -0.024102   0.013069   1.699886   1.877875  -7.039232
    26  H    0.007792  -0.000219  -0.000042   0.164441   0.070761  -0.191162
    27  O   -0.007198  -0.000717  -0.000059  -0.005964   0.048815  -0.304522
    28  C   -0.041486  -0.000506   0.000183  -0.003678   0.170495  -0.094258
    29  H   -0.004566   0.000014   0.000014  -0.045168   0.009064  -0.063894
    30  H    0.004390   0.000010  -0.000026   0.030625  -0.008595   0.114106
    31  H   -0.002460  -0.000016   0.000016   0.009011   0.003589  -0.006968
              19         20         21         22         23         24
     1  C    0.000163   0.005313   0.006464   0.011969  -0.000665   0.000013
     2  H    0.000008   0.000275   0.000351   0.001335  -0.000068   0.000002
     3  H    0.000041  -0.003153   0.007447  -0.008155  -0.000011  -0.000029
     4  C   -0.000146   0.001368  -0.000773   0.000607   0.000307  -0.000031
     5  H    0.000000   0.000145  -0.000807  -0.000839  -0.000016  -0.000001
     6  N   -0.000212  -0.007277   0.037916   0.012390   0.001156  -0.000006
     7  H   -0.000122  -0.000623   0.000043   0.000721   0.000244  -0.000002
     8  H    0.000066  -0.001486   0.004631   0.000426   0.000092   0.000006
     9  H   -0.000007   0.000128  -0.000748   0.000066   0.000024  -0.000001
    10  C   -0.005126  -0.263311   0.260792  -0.084241   0.008288  -0.003265
    11  H   -0.001130   0.020200  -0.046222  -0.005662  -0.002442  -0.000001
    12  C   -0.018797  -1.062242   0.594435   0.018665   0.003054  -0.000350
    13  C   -0.117853  -4.004779  -0.011777  -0.071701   0.028045  -0.019482
    14  H    0.000030   0.021453  -0.060864  -0.004658  -0.002050   0.000102
    15  O   -0.027354  -0.091056   0.003989  -0.004400   0.093947  -0.000096
    16  C    0.194767  -1.672649  -3.501195  -0.473309  -0.230835  -0.110151
    17  C    0.234062 -10.315177   0.811337  -0.245021   0.171536  -0.304758
    18  C    0.102080   8.350083  -2.236462   1.231316  -0.028482   0.139961
    19  O    8.026977  -0.359628  -0.008100  -0.000117   0.241593  -0.030001
    20  C   -0.359628  21.240541  -3.640880   0.253980  -0.003105   0.696431
    21  C   -0.008100  -3.640880  16.149661  -0.073589   0.039290   0.058689
    22  H   -0.000117   0.253980  -0.073589   0.507689   0.000504   0.005073
    23  H    0.241593  -0.003105   0.039290   0.000504   0.369884   0.001752
    24  H   -0.030001   0.696431   0.058689   0.005073   0.001752   0.468638
    25  C    0.014649  -2.619571  -1.709313  -0.306082  -0.003959  -0.134342
    26  H    0.002302  -0.135036  -0.380611  -0.009423  -0.000614  -0.022734
    27  O    0.000281   0.021016   0.159349  -0.030236   0.000333  -0.000836
    28  C   -0.000545  -0.284207   0.191752  -0.000965   0.000381   0.001184
    29  H   -0.000115  -0.040378   0.072386   0.003391   0.000110   0.001182
    30  H    0.000102   0.042886  -0.139596  -0.004009  -0.000043   0.000055
    31  H   -0.000019  -0.015813   0.027065  -0.001527   0.000001   0.000096
              25         26         27         28         29         30
     1  C   -0.005183  -0.000045   0.000094  -0.000230   0.000008  -0.000012
     2  H   -0.000367  -0.000003   0.000008  -0.000018   0.000001  -0.000001
     3  H    0.003922   0.000045   0.000036   0.000047  -0.000007   0.000005
     4  C    0.001781   0.000029  -0.000032   0.000039   0.000003  -0.000008
     5  H    0.000047   0.000003  -0.000001   0.000005  -0.000002   0.000000
     6  N   -0.000308  -0.000014   0.000108   0.000055   0.000009  -0.000006
     7  H    0.000310   0.000003   0.000000   0.000026  -0.000001   0.000000
     8  H    0.000569  -0.000007   0.000011   0.000006   0.000003   0.000003
     9  H   -0.000054   0.000000  -0.000001   0.000002   0.000000   0.000000
    10  C    0.259686   0.002943  -0.000728   0.004224  -0.000363   0.000117
    11  H   -0.003663   0.000102  -0.000287  -0.000244  -0.000061   0.000003
    12  C   -0.534220  -0.003903  -0.002673  -0.022954   0.000302   0.000122
    13  C   -1.236435   0.007792  -0.007198  -0.041486  -0.004566   0.004390
    14  H   -0.024102  -0.000219  -0.000717  -0.000506   0.000014   0.000010
    15  O    0.013069  -0.000042  -0.000059   0.000183   0.000014  -0.000026
    16  C    1.699886   0.164441  -0.005964  -0.003678  -0.045168   0.030625
    17  C    1.877875   0.070761   0.048815   0.170495   0.009064  -0.008595
    18  C   -7.039232  -0.191162  -0.304522  -0.094258  -0.063894   0.114106
    19  O    0.014649   0.002302   0.000281  -0.000545  -0.000115   0.000102
    20  C   -2.619571  -0.135036   0.021016  -0.284207  -0.040378   0.042886
    21  C   -1.709313  -0.380611   0.159349   0.191752   0.072386  -0.139596
    22  H   -0.306082  -0.009423  -0.030236  -0.000965   0.003391  -0.004009
    23  H   -0.003959  -0.000614   0.000333   0.000381   0.000110  -0.000043
    24  H   -0.134342  -0.022734  -0.000836   0.001184   0.001182   0.000055
    25  C   14.514534   0.795193   0.143398  -0.154210   0.035398  -0.046600
    26  H    0.795193   0.560795  -0.010822  -0.018987  -0.002505  -0.002773
    27  O    0.143398  -0.010822   8.140945   0.154734  -0.047951  -0.033691
    28  C   -0.154210  -0.018987   0.154734   5.252927   0.397459   0.403664
    29  H    0.035398  -0.002505  -0.047951   0.397459   0.635687  -0.067585
    30  H   -0.046600  -0.002773  -0.033691   0.403664  -0.067585   0.550749
    31  H    0.007268  -0.000658  -0.064846   0.422402  -0.023449  -0.022346
              31
     1  C   -0.000036
     2  H   -0.000004
     3  H    0.000014
     4  C    0.000008
     5  H    0.000003
     6  N   -0.000015
     7  H    0.000005
     8  H   -0.000004
     9  H    0.000000
    10  C    0.000464
    11  H    0.000028
    12  C   -0.001908
    13  C   -0.002460
    14  H   -0.000016
    15  O    0.000016
    16  C    0.009011
    17  C    0.003589
    18  C   -0.006968
    19  O   -0.000019
    20  C   -0.015813
    21  C    0.027065
    22  H   -0.001527
    23  H    0.000001
    24  H    0.000096
    25  C    0.007268
    26  H   -0.000658
    27  O   -0.064846
    28  C    0.422402
    29  H   -0.023449
    30  H   -0.022346
    31  H    0.484494
 Mulliken charges:
               1
     1  C   -0.435751
     2  H    0.181666
     3  H    0.175973
     4  C   -0.320235
     5  H    0.164392
     6  N    0.185075
     7  H    0.187902
     8  H    0.135414
     9  H    0.172581
    10  C   -0.683314
    11  H    0.154738
    12  C   -0.203771
    13  C    0.168947
    14  H    0.219584
    15  O   -0.230306
    16  C    1.097732
    17  C   -0.451257
    18  C   -0.958277
    19  O   -0.247848
    20  C   -0.133449
    21  C   -0.614660
    22  H    0.275801
    23  H    0.311745
    24  H    0.252900
    25  C    0.450054
    26  H    0.175150
    27  O   -0.158565
    28  C   -0.377297
    29  H    0.141014
    30  H    0.178456
    31  H    0.185605
 Sum of Mulliken charges =   0.00000
 Mulliken charges with hydrogens summed into heavy atoms:
               1
     1  C    0.109790
     4  C    0.152152
     6  N    0.185075
    10  C   -0.528576
    12  C    0.015814
    13  C    0.168947
    15  O   -0.230306
    16  C    1.097732
    17  C   -0.451257
    18  C   -0.682476
    19  O    0.063898
    20  C    0.119451
    21  C   -0.614660
    25  C    0.625204
    27  O   -0.158565
    28  C    0.127779
 Electronic spatial extent (au):  <R**2>=           5178.7685
 Charge=              0.0000 electrons
 Dipole moment (field-independent basis, Debye):
    X=              0.3141    Y=             -4.0994    Z=              0.4434  Tot=              4.1352
 Quadrupole moment (field-independent basis, Debye-Ang):
   XX=            -64.8761   YY=           -105.9620   ZZ=            -93.2388
   XY=             -3.4143   XZ=              1.7904   YZ=              1.7900
 Traceless Quadrupole moment (field-independent basis, Debye-Ang):
   XX=             23.1495   YY=            -17.9363   ZZ=             -5.2132
   XY=             -3.4143   XZ=              1.7904   YZ=              1.7900
 Octapole moment (field-independent basis, Debye-Ang**2):
  XXX=             -1.5490  YYY=            -35.5696  ZZZ=              0.5046  XYY=             -8.1764
  XXY=            -57.8377  XXZ=              9.1282  XZZ=             17.7539  YZZ=             -1.1841
  YYZ=             -1.5652  XYZ=             -2.0245
 Hexadecapole moment (field-independent basis, Debye-Ang**3):
 XXXX=          -4182.7810 YYYY=          -1623.3177 ZZZZ=           -323.3336 XXXY=              2.3588
 XXXZ=             -4.7318 YYYX=             70.0049 YYYZ=              7.0045 ZZZX=             14.2319
 ZZZY=             -3.1051 XXYY=          -1016.0319 XXZZ=           -851.2493 YYZZ=           -322.9216
 XXYZ=             19.6745 YYXZ=             14.7674 ZZXY=              1.3639
 N-N= 1.050477912141D+03 E-N=-3.843330591833D+03  KE= 7.434403759484D+02
 Calling FoFJK, ICntrl=  10005127 FMM=F ISym2X=0 I1Cent= 0 IOpClX= 0 NMat=1 NMatS=1 NMatT=0.
 ***** Axes restored to original set *****
 -------------------------------------------------------------------
 Center     Atomic                   Forces (Hartrees/Bohr)
 Number     Number              X              Y              Z
 -------------------------------------------------------------------
      1        6           0.000043247    0.000004216   -0.000021758
      2        1          -0.000043155    0.000034968    0.000079812
      3        1           0.000023426   -0.000024215   -0.000007695
      4        6           0.000038094    0.000057758   -0.000324144
      5        1          -0.000095040   -0.000058072    0.000000201
      6        7          -0.000401021   -0.000566174    0.000240183
      7        1          -0.000049362   -0.000036872    0.000094467
      8        1          -0.000050188   -0.000024280    0.000133066
      9        1           0.000044155   -0.000009521    0.000120456
     10        6           0.000046389    0.000474228   -0.000501456
     11        1           0.000018231    0.000243924   -0.000034552
     12        6           0.000261533    0.000308817    0.000461392
     13        6           0.000551282   -0.000034520   -0.000188298
     14        1          -0.000216386    0.000004269   -0.000047046
     15        8          -0.001164968    0.000713561    0.000767828
     16        6          -0.004912506   -0.001588606    0.000756347
     17        6          -0.001233363   -0.000657973    0.000143204
     18        6          -0.000172941    0.010154629    0.002082941
     19        8           0.001185071   -0.001862273   -0.000782870
     20        6           0.004652905    0.001170197   -0.001660402
     21        6          -0.024203850    0.016734680    0.017963482
     22        1          -0.001987920    0.000382684    0.001321920
     23        1          -0.000444983   -0.000180113    0.000112345
     24        1          -0.000324426    0.000570959    0.000241647
     25        6          -0.001953701    0.000237259    0.001453238
     26        1           0.002001743   -0.001829211   -0.001145898
     27        8           0.022111995   -0.022176435   -0.014120506
     28        6           0.005949894   -0.003558120   -0.006400170
     29        1          -0.000391512    0.002697178    0.001449663
     30        1           0.000296376   -0.000653031   -0.001222176
     31        1           0.000420981   -0.000529911   -0.000965222
 -------------------------------------------------------------------
 Cartesian Forces:  Max     0.024203850 RMS     0.005352421

 GradGradGradGradGradGradGradGradGradGradGradGradGradGradGradGradGradGrad
 Berny optimization.
 FormGI is forming the generalized inverse of G from B-inverse, IUseBI=4.
 Internal  Forces:  Max     0.040108315 RMS     0.004318782
 Search for a local minimum.
 Step number   1 out of a maximum of  150
 All quantities printed in internal units (Hartrees-Bohrs-Radians)
 Mixed Optimization -- RFO/linear search
 Second derivative matrix not updated -- first step.
 ITU=  0
     Eigenvalues ---    0.00945   0.00980   0.01163   0.01255   0.01403
     Eigenvalues ---    0.01453   0.01671   0.01846   0.01882   0.01918
     Eigenvalues ---    0.01922   0.02022   0.02066   0.02104   0.02172
     Eigenvalues ---    0.02192   0.02220   0.02241   0.02275   0.02296
     Eigenvalues ---    0.02448   0.02626   0.07444   0.07541   0.07575
     Eigenvalues ---    0.07650   0.10007   0.10623   0.15748   0.16000
     Eigenvalues ---    0.16000   0.16000   0.16000   0.16000   0.16000
     Eigenvalues ---    0.16000   0.16000   0.16000   0.16000   0.16000
     Eigenvalues ---    0.16000   0.16000   0.16000   0.22000   0.22060
     Eigenvalues ---    0.22370   0.23491   0.24589   0.24966   0.24998
     Eigenvalues ---    0.24998   0.24999   0.25000   0.25000   0.25000
     Eigenvalues ---    0.25000   0.33934   0.33934   0.34482   0.34483
     Eigenvalues ---    0.34510   0.34581   0.34695   0.34924   0.34986
     Eigenvalues ---    0.34987   0.35336   0.35478   0.35513   0.35557
     Eigenvalues ---    0.36587   0.37416   0.37753   0.39585   0.39926
     Eigenvalues ---    0.41448   0.42754   0.43547   0.45003   0.45426
     Eigenvalues ---    0.47204   0.48041   0.48363   0.52729   0.54114
     Eigenvalues ---    0.59653   0.66632
 RFO step:  Lambda=-8.27504818D-03 EMin= 9.45438002D-03
 Linear search not attempted -- first point.
 Iteration  1 RMS(Cart)=  0.07379872 RMS(Int)=  0.00295531
 Iteration  2 RMS(Cart)=  0.00392764 RMS(Int)=  0.00010904
 Iteration  3 RMS(Cart)=  0.00001969 RMS(Int)=  0.00010835
 Iteration  4 RMS(Cart)=  0.00000000 RMS(Int)=  0.00010835
 Variable       Old X    -DE/DX   Delta X   Delta X   Delta X     New X
                                 (Linear)    (Quad)   (Total)
    R1        2.05697  -0.00003   0.00000  -0.00010  -0.00010   2.05688
    R2        2.06477  -0.00003   0.00000  -0.00008  -0.00008   2.06469
    R3        2.75224   0.00007   0.00000   0.00017   0.00017   2.75241
    R4        2.06361   0.00003   0.00000   0.00008   0.00008   2.06370
    R5        2.06524  -0.00004   0.00000  -0.00012  -0.00012   2.06512
    R6        2.74726   0.00005   0.00000   0.00012   0.00012   2.74738
    R7        2.05696  -0.00003   0.00000  -0.00008  -0.00008   2.05688
    R8        2.06523  -0.00002   0.00000  -0.00005  -0.00005   2.06518
    R9        2.51216  -0.00084   0.00000  -0.00140  -0.00140   2.51076
   R10        2.04906  -0.00004   0.00000  -0.00010  -0.00010   2.04896
   R11        2.61895   0.00022   0.00000   0.00044   0.00044   2.61939
   R12        2.76473   0.00006   0.00000   0.00016   0.00016   2.76489
   R13        2.05799  -0.00018   0.00000  -0.00051  -0.00051   2.05748
   R14        2.46048  -0.00146   0.00000  -0.00217  -0.00217   2.45831
   R15        2.67000  -0.00117   0.00000  -0.00263  -0.00263   2.66737
   R16        2.69325  -0.00009   0.00000  -0.00028  -0.00029   2.69296
   R17        2.67078  -0.00091   0.00000  -0.00231  -0.00232   2.66846
   R18        2.55928   0.00225   0.00000   0.00410   0.00410   2.56338
   R19        2.61350  -0.00233   0.00000  -0.00454  -0.00455   2.60895
   R20        2.61807  -0.00686   0.00000  -0.01419  -0.01418   2.60388
   R21        2.05133  -0.00063   0.00000  -0.00175  -0.00175   2.04957
   R22        1.83907  -0.00049   0.00000  -0.00091  -0.00091   1.83816
   R23        2.04850  -0.00035   0.00000  -0.00096  -0.00096   2.04753
   R24        2.63717   0.00128   0.00000   0.00295   0.00296   2.64013
   R25        2.62984   0.00036   0.00000   0.00081   0.00082   2.63067
   R26        2.72121  -0.04011   0.00000  -0.09925  -0.09925   2.62196
   R27        2.04780  -0.00217   0.00000  -0.00597  -0.00597   2.04183
   R28        2.67975  -0.00911   0.00000  -0.02090  -0.02090   2.65885
   R29        2.07441  -0.00162   0.00000  -0.00465  -0.00465   2.06976
   R30        2.07441  -0.00059   0.00000  -0.00171  -0.00171   2.07270
   R31        2.06172  -0.00085   0.00000  -0.00241  -0.00241   2.05932
    A1        1.90125  -0.00005   0.00000  -0.00036  -0.00036   1.90090
    A2        1.90009   0.00009   0.00000   0.00068   0.00068   1.90077
    A3        1.90080   0.00004   0.00000   0.00063   0.00063   1.90142
    A4        1.93152  -0.00002   0.00000  -0.00032  -0.00032   1.93120
    A5        1.90572  -0.00006   0.00000  -0.00065  -0.00065   1.90507
    A6        1.92405   0.00000   0.00000   0.00004   0.00004   1.92409
    A7        1.92274   0.00002   0.00000   0.00004   0.00004   1.92278
    A8        1.90228   0.00001   0.00000  -0.00023  -0.00023   1.90205
    A9        1.90145   0.00008   0.00000   0.00065   0.00065   1.90210
   A10        1.91732  -0.00016   0.00000  -0.00107  -0.00107   1.91626
   A11        1.91839  -0.00010   0.00000  -0.00046  -0.00046   1.91793
   A12        1.90136   0.00016   0.00000   0.00109   0.00109   1.90245
   A13        2.04901   0.00029   0.00000   0.00113   0.00113   2.05013
   A14        2.11682  -0.00018   0.00000  -0.00070  -0.00070   2.11612
   A15        2.11730  -0.00011   0.00000  -0.00044  -0.00044   2.11687
   A16        2.02251   0.00001   0.00000  -0.00026  -0.00026   2.02225
   A17        2.20101  -0.00044   0.00000  -0.00192  -0.00192   2.19909
   A18        2.05963   0.00042   0.00000   0.00217   0.00217   2.06180
   A19        2.08386   0.00002   0.00000   0.00038   0.00037   2.08424
   A20        2.09598   0.00008   0.00000   0.00096   0.00095   2.09693
   A21        2.07982  -0.00006   0.00000   0.00008   0.00007   2.07989
   A22        1.79435   0.00112   0.00000   0.00432   0.00432   1.79867
   A23        2.24242  -0.00089   0.00000  -0.00347  -0.00347   2.23895
   A24        2.24442  -0.00023   0.00000  -0.00091  -0.00091   2.24351
   A25        2.09851   0.00058   0.00000   0.00241   0.00242   2.10093
   A26        2.13235  -0.00316   0.00000  -0.01210  -0.01209   2.12026
   A27        2.05227   0.00258   0.00000   0.00973   0.00970   2.06197
   A28        2.11237   0.00160   0.00000   0.00592   0.00593   2.11830
   A29        2.10065  -0.00236   0.00000  -0.00863  -0.00864   2.09200
   A30        2.07016   0.00077   0.00000   0.00271   0.00272   2.07288
   A31        2.11904  -0.00219   0.00000  -0.01016  -0.01015   2.10889
   A32        2.07390   0.00346   0.00000   0.01913   0.01913   2.09302
   A33        2.09024  -0.00127   0.00000  -0.00896  -0.00897   2.08127
   A34        1.89482   0.00016   0.00000   0.00097   0.00097   1.89580
   A35        2.06230  -0.00005   0.00000   0.00016   0.00016   2.06245
   A36        2.10793   0.00135   0.00000   0.00710   0.00710   2.11503
   A37        2.11296  -0.00130   0.00000  -0.00725  -0.00726   2.10570
   A38        2.09413   0.00352   0.00000   0.01369   0.01368   2.10780
   A39        2.09453  -0.02042   0.00000  -0.07908  -0.07912   2.01541
   A40        2.09453   0.01689   0.00000   0.06539   0.06532   2.15985
   A41        2.09232  -0.00290   0.00000  -0.01177  -0.01175   2.08057
   A42        2.08834  -0.00057   0.00000  -0.00614  -0.00615   2.08219
   A43        2.10251   0.00348   0.00000   0.01793   0.01791   2.12043
   A44        2.06284  -0.00544   0.00000  -0.02106  -0.02106   2.04179
   A45        1.94999   0.00278   0.00000   0.01685   0.01685   1.96684
   A46        1.94999  -0.00102   0.00000  -0.00471  -0.00473   1.94526
   A47        1.85102  -0.00159   0.00000  -0.01101  -0.01101   1.84002
   A48        1.90154   0.00015   0.00000   0.00363   0.00361   1.90515
   A49        1.90501  -0.00153   0.00000  -0.01173  -0.01169   1.89332
   A50        1.90501   0.00113   0.00000   0.00622   0.00620   1.91121
    D1       -0.08592   0.00003   0.00000  -0.00018  -0.00018  -0.08611
    D2        3.06739   0.00005   0.00000   0.00070   0.00070   3.06809
    D3        2.00317   0.00001   0.00000  -0.00039  -0.00039   2.00278
    D4       -1.12670   0.00003   0.00000   0.00049   0.00049  -1.12621
    D5       -2.16993  -0.00008   0.00000  -0.00139  -0.00139  -2.17133
    D6        0.98338  -0.00006   0.00000  -0.00051  -0.00051   0.98287
    D7       -1.03667  -0.00006   0.00000  -0.00171  -0.00171  -1.03838
    D8        2.09320  -0.00008   0.00000  -0.00259  -0.00259   2.09061
    D9       -3.13247   0.00002   0.00000  -0.00078  -0.00078  -3.13324
   D10       -0.00260   0.00000   0.00000  -0.00166  -0.00166  -0.00426
   D11        1.05878  -0.00002   0.00000  -0.00117  -0.00117   1.05761
   D12       -2.09454  -0.00004   0.00000  -0.00205  -0.00205  -2.09659
   D13       -3.11708  -0.00013   0.00000  -0.00391  -0.00391  -3.12099
   D14        0.03316  -0.00006   0.00000  -0.00193  -0.00194   0.03123
   D15        0.03669  -0.00011   0.00000  -0.00300  -0.00300   0.03369
   D16       -3.09625  -0.00004   0.00000  -0.00103  -0.00103  -3.09728
   D17       -3.01780  -0.00014   0.00000  -0.00508  -0.00509  -3.02289
   D18       -0.10939   0.00004   0.00000   0.00181   0.00181  -0.10758
   D19        0.13261  -0.00008   0.00000  -0.00306  -0.00306   0.12955
   D20        3.04102   0.00010   0.00000   0.00384   0.00384   3.04486
   D21        1.46932   0.00019   0.00000   0.00726   0.00726   1.47658
   D22       -1.73630   0.00015   0.00000   0.00645   0.00645  -1.72985
   D23       -1.44126  -0.00001   0.00000   0.00031   0.00031  -1.44095
[...]
 Alpha virt. eigenvalues --    2.28127   2.32077   2.34007   2.37316   2.38753
 Alpha virt. eigenvalues --    2.41816   2.43600   2.45543   2.50265   2.51061
 Alpha virt. eigenvalues --    2.52310   2.54626   2.54759   2.55416   2.56774
 Alpha virt. eigenvalues --    2.57620   2.58492   2.60629   2.61331   2.63499
 Alpha virt. eigenvalues --    2.64731   2.66175   2.67550   2.69509   2.70609
 Alpha virt. eigenvalues --    2.71909   2.73510   2.74928   2.75422   2.76899
 Alpha virt. eigenvalues --    2.79097   2.79355   2.80360   2.81120   2.82639
 Alpha virt. eigenvalues --    2.83037   2.84671   2.85613   2.86651   2.88817
 Alpha virt. eigenvalues --    2.90341   2.91434   2.93437   2.95657   2.97994
 Alpha virt. eigenvalues --    2.99829   3.01125   3.02982   3.04353   3.05686
 Alpha virt. eigenvalues --    3.09326   3.10634   3.13905   3.14894   3.15183
 Alpha virt. eigenvalues --    3.16874   3.17725   3.18405   3.20769   3.22259
 Alpha virt. eigenvalues --    3.23687   3.28818   3.30557   3.30993   3.33340
 Alpha virt. eigenvalues --    3.33784   3.36481   3.39216   3.42603   3.47097
 Alpha virt. eigenvalues --    3.49539   3.50645   3.57920   3.60767   3.67775
 Alpha virt. eigenvalues --    3.68603   3.71048   3.75091   3.75638   3.79151
 Alpha virt. eigenvalues --    3.83687   3.84595   3.86396   3.87817   3.92328
 Alpha virt. eigenvalues --    3.92924   3.95890   3.96552   4.04158   4.12674
 Alpha virt. eigenvalues --    4.16576   4.18659   4.21102   4.24851   4.27606
 Alpha virt. eigenvalues --    4.32951   4.37167   4.54830   4.94173   4.99923
 Alpha virt. eigenvalues --    5.13664   5.14853   5.19012   5.20387   5.44018
 Alpha virt. eigenvalues --    5.53295   5.58191   5.83824   5.87553   5.94699
 Alpha virt. eigenvalues --   23.71692  23.97181  24.01865  24.02732  24.05587
 Alpha virt. eigenvalues --   24.07016  24.08527  24.13955  24.16723  24.21987
 Alpha virt. eigenvalues --   24.28043  24.29987  35.72438  50.09715  50.11416
 Alpha virt. eigenvalues --   50.14299
          Condensed to atoms (all electrons):
               1          2          3          4          5          6
     1  C    5.198632   0.388409   0.382642  -0.069914   0.001987   0.239004
     2  H    0.388409   0.502997  -0.029943   0.007844  -0.007113  -0.052436
     3  H    0.382642  -0.029943   0.556734  -0.003979   0.001554  -0.070030
     4  C   -0.069914   0.007844  -0.003979   5.161615   0.409436   0.254307
     5  H    0.001987  -0.007113   0.001554   0.409436   0.586403  -0.063173
     6  N    0.239004  -0.052436  -0.070030   0.254307  -0.063173   6.927479
     7  H    0.439429  -0.011403  -0.050104   0.005435   0.001399  -0.049287
     8  H   -0.004479   0.004226  -0.002469   0.391064  -0.030992  -0.095153
     9  H    0.000628  -0.004273   0.002261   0.428197  -0.071364  -0.063256
    10  C   -0.370551   0.025898   0.030726  -0.064267  -0.028028   0.234630
    11  H    0.004866  -0.001441   0.001741  -0.031958   0.007798  -0.079761
    12  C    0.415620   0.016761  -0.015879  -0.215888   0.009717  -0.289550
    13  C   -0.110815  -0.012308   0.022925  -0.000250   0.012605  -0.059846
    14  H    0.024100  -0.001255  -0.004926  -0.011716   0.002806  -0.043880
    15  O   -0.006029  -0.000534   0.000482  -0.001606  -0.000043  -0.000240
    16  C   -0.226735  -0.016156   0.028283   0.038738   0.005074  -0.084877
    17  C   -0.047896  -0.002981   0.003648   0.004444   0.000812  -0.022166
    18  C    0.147684   0.009577  -0.024001   0.018284  -0.001327   0.087633
    19  O    0.000354   0.000018   0.000017  -0.000153   0.000000  -0.000222
    20  C    0.003604   0.000177  -0.002690   0.002934   0.000273  -0.008476
    21  C    0.015593   0.000949   0.003527  -0.004400  -0.001054   0.037694
    22  H    0.016018   0.001719  -0.008920   0.000254  -0.000766   0.013562
    23  H   -0.000613  -0.000051  -0.000024   0.000143  -0.000019   0.001074
    24  H   -0.000020   0.000000  -0.000021  -0.000023   0.000000  -0.000012
    25  C   -0.005348  -0.000405   0.003676   0.001239  -0.000045   0.000062
    26  H   -0.000042  -0.000004   0.000042   0.000044   0.000003  -0.000008
    27  O    0.000118   0.000010   0.000040  -0.000039   0.000006   0.000093
    28  C   -0.000223  -0.000015   0.000009   0.000000   0.000003   0.000063
    29  H   -0.000003   0.000000   0.000004   0.000004  -0.000007   0.000029
    30  H   -0.000019  -0.000001   0.000003  -0.000011   0.000002  -0.000011
    31  H   -0.000023  -0.000002   0.000005   0.000004   0.000002  -0.000025
               7          8          9         10         11         12
     1  C    0.439429  -0.004479   0.000628  -0.370551   0.004866   0.415620
     2  H   -0.011403   0.004226  -0.004273   0.025898  -0.001441   0.016761
     3  H   -0.050104  -0.002469   0.002261   0.030726   0.001741  -0.015879
     4  C    0.005435   0.391064   0.428197  -0.064267  -0.031958  -0.215888
     5  H    0.001399  -0.030992  -0.071364  -0.028028   0.007798   0.009717
     6  N   -0.049287  -0.095153  -0.063256   0.234630  -0.079761  -0.289550
     7  H    0.520629  -0.000916  -0.000561  -0.001187  -0.004716   0.024767
     8  H   -0.000916   0.553188  -0.019521   0.098440  -0.008736  -0.009337
     9  H   -0.000561  -0.019521   0.575874  -0.005400  -0.001750  -0.005849
    10  C   -0.001187   0.098440  -0.005400   8.811058   0.203159  -2.538011
    11  H   -0.004716  -0.008736  -0.001750   0.203159   0.549244   0.195580
    12  C    0.024767  -0.009337  -0.005849  -2.538011   0.195580  17.955699
    13  C   -0.054622  -0.010550  -0.005671  -0.877596   0.058011   0.724090
    14  H   -0.006328  -0.002684  -0.001702  -0.225161   0.025231   0.662285
    15  O   -0.000730   0.001604   0.000065   0.005036  -0.007526  -0.633574
    16  C    0.001200  -0.003500   0.002641   1.565612   0.032485  -6.725224
    17  C    0.001579  -0.000668   0.000749   0.288525   0.039030  -2.425311
    18  C   -0.002967   0.001183  -0.002825  -0.505363  -0.097796  -0.018403
    19  O   -0.000142   0.000068  -0.000009  -0.007749  -0.001258   0.005916
    20  C   -0.000573  -0.001672   0.000124  -0.189593   0.019669  -1.507614
    21  C   -0.000263   0.004643  -0.000772   0.104751  -0.043902   0.929537
    22  H    0.000477   0.000655  -0.000047  -0.089634  -0.007642   0.039727
    23  H    0.000253   0.000122   0.000015   0.009201  -0.002334   0.006828
    24  H    0.000001   0.000007  -0.000001  -0.002120  -0.000022  -0.007486
    25  C    0.000331   0.000509  -0.000022   0.204469  -0.001512  -0.354860
    26  H    0.000003  -0.000012   0.000000   0.002852   0.000083  -0.005446
    27  O   -0.000004   0.000008  -0.000002  -0.000426  -0.000238  -0.010024
    28  C    0.000019  -0.000013   0.000003  -0.000112   0.000033  -0.002707
    29  H   -0.000001   0.000011   0.000000  -0.000209  -0.000076  -0.000068
    30  H    0.000002   0.000003   0.000000   0.000390  -0.000016  -0.001663
    31  H    0.000003  -0.000007   0.000001  -0.000012   0.000059  -0.000089
              13         14         15         16         17         18
     1  C   -0.110815   0.024100  -0.006029  -0.226735  -0.047896   0.147684
     2  H   -0.012308  -0.001255  -0.000534  -0.016156  -0.002981   0.009577
     3  H    0.022925  -0.004926   0.000482   0.028283   0.003648  -0.024001
     4  C   -0.000250  -0.011716  -0.001606   0.038738   0.004444   0.018284
     5  H    0.012605   0.002806  -0.000043   0.005074   0.000812  -0.001327
     6  N   -0.059846  -0.043880  -0.000240  -0.084877  -0.022166   0.087633
     7  H   -0.054622  -0.006328  -0.000730   0.001200   0.001579  -0.002967
     8  H   -0.010550  -0.002684   0.001604  -0.003500  -0.000668   0.001183
     9  H   -0.005671  -0.001702   0.000065   0.002641   0.000749  -0.002825
    10  C   -0.877596  -0.225161   0.005036   1.565612   0.288525  -0.505363
    11  H    0.058011   0.025231  -0.007526   0.032485   0.039030  -0.097796
    12  C    0.724090   0.662285  -0.633574  -6.725224  -2.425311  -0.018403
    13  C   15.236552   0.041372   0.818371  -1.455728   1.267795  -4.310780
    14  H    0.041372   0.533269   0.006437  -0.062722   0.004476  -0.104437
    15  O    0.818371   0.006437   8.065795  -0.008791   0.141329  -0.111208
    16  C   -1.455728  -0.062722  -0.008791  20.257259  -0.368034  -4.141038
    17  C    1.267795   0.004476   0.141329  -0.368034  29.411894 -11.888554
    18  C   -4.310780  -0.104437  -0.111208  -4.141038 -11.888554  24.543886
    19  O   -0.106213   0.000750  -0.026326   0.210146   0.158630   0.140137
    20  C   -4.124913   0.020304  -0.114370  -1.281635 -10.739873   6.905591
    21  C   -0.443152  -0.051054   0.005419  -4.128340  -0.169764   0.458654
    22  H   -0.145098  -0.003693  -0.003218  -0.528502  -0.217373   1.160159
    23  H    0.030408  -0.002323   0.091770  -0.235249   0.180391  -0.023619
    24  H   -0.029309   0.000006  -0.000119  -0.111654  -0.246287   0.091852
    25  C   -0.717071  -0.020880   0.010777   1.971497   0.873675  -4.836664
    26  H    0.003841  -0.000223   0.000028   0.144244   0.097166  -0.163374
    27  O   -0.006800  -0.000573  -0.000054   0.052808   0.063575  -0.149251
    28  C   -0.010791   0.000109   0.000117  -0.046913   0.095404  -0.045486
    29  H   -0.001369  -0.000073  -0.000006  -0.023358   0.009061  -0.008400
    30  H   -0.001572  -0.000034  -0.000004   0.001693   0.003361   0.054574
    31  H   -0.000290   0.000065   0.000017   0.006107  -0.007206  -0.007691
              19         20         21         22         23         24
     1  C    0.000354   0.003604   0.015593   0.016018  -0.000613  -0.000020
     2  H    0.000018   0.000177   0.000949   0.001719  -0.000051   0.000000
     3  H    0.000017  -0.002690   0.003527  -0.008920  -0.000024  -0.000021
     4  C   -0.000153   0.002934  -0.004400   0.000254   0.000143  -0.000023
     5  H    0.000000   0.000273  -0.001054  -0.000766  -0.000019   0.000000
     6  N   -0.000222  -0.008476   0.037694   0.013562   0.001074  -0.000012
     7  H   -0.000142  -0.000573  -0.000263   0.000477   0.000253   0.000001
     8  H    0.000068  -0.001672   0.004643   0.000655   0.000122   0.000007
     9  H   -0.000009   0.000124  -0.000772  -0.000047   0.000015  -0.000001
    10  C   -0.007749  -0.189593   0.104751  -0.089634   0.009201  -0.002120
    11  H   -0.001258   0.019669  -0.043902  -0.007642  -0.002334  -0.000022
    12  C    0.005916  -1.507614   0.929537   0.039727   0.006828  -0.007486
    13  C   -0.106213  -4.124913  -0.443152  -0.145098   0.030408  -0.029309
    14  H    0.000750   0.020304  -0.051054  -0.003693  -0.002323   0.000006
    15  O   -0.026326  -0.114370   0.005419  -0.003218   0.091770  -0.000119
    16  C    0.210146  -1.281635  -4.128340  -0.528502  -0.235249  -0.111654
    17  C    0.158630 -10.739873  -0.169764  -0.217373   0.180391  -0.246287
    18  C    0.140137   6.905591   0.458654   1.160159  -0.023619   0.091852
    19  O    8.038063  -0.373122  -0.007992   0.000893   0.239199  -0.030187
    20  C   -0.373122  22.283717  -3.171318   0.191157  -0.003486   0.647810
    21  C   -0.007992  -3.171318  14.588346   0.109841   0.033863   0.048596
    22  H    0.000893   0.191157   0.109841   0.515805   0.000775   0.003867
    23  H    0.239199  -0.003486   0.033863   0.000775   0.373823   0.002099
    24  H   -0.030187   0.647810   0.048596   0.003867   0.002099   0.467745
    25  C    0.009667  -1.960361  -1.661418  -0.278409  -0.008759  -0.068231
    26  H    0.001783  -0.225085  -0.243131  -0.010067  -0.000430  -0.018938
    27  O    0.000376   0.014458  -0.107596  -0.040429   0.000350  -0.000800
    28  C   -0.001121  -0.253338   0.245480   0.005006   0.000167   0.004045
    29  H    0.000048   0.014154  -0.020504   0.001283   0.000063   0.000566
    30  H    0.000053   0.005755  -0.061784  -0.002000   0.000030   0.000602
    31  H   -0.000040  -0.007649   0.050976  -0.000467  -0.000018   0.000182
              25         26         27         28         29         30
     1  C   -0.005348  -0.000042   0.000118  -0.000223  -0.000003  -0.000019
     2  H   -0.000405  -0.000004   0.000010  -0.000015   0.000000  -0.000001
     3  H    0.003676   0.000042   0.000040   0.000009   0.000004   0.000003
     4  C    0.001239   0.000044  -0.000039   0.000000   0.000004  -0.000011
     5  H   -0.000045   0.000003   0.000006   0.000003  -0.000007   0.000002
     6  N    0.000062  -0.000008   0.000093   0.000063   0.000029  -0.000011
     7  H    0.000331   0.000003  -0.000004   0.000019  -0.000001   0.000002
     8  H    0.000509  -0.000012   0.000008  -0.000013   0.000011   0.000003
     9  H   -0.000022   0.000000  -0.000002   0.000003   0.000000   0.000000
    10  C    0.204469   0.002852  -0.000426  -0.000112  -0.000209   0.000390
    11  H   -0.001512   0.000083  -0.000238   0.000033  -0.000076  -0.000016
    12  C   -0.354860  -0.005446  -0.010024  -0.002707  -0.000068  -0.001663
    13  C   -0.717071   0.003841  -0.006800  -0.010791  -0.001369  -0.001572
    14  H   -0.020880  -0.000223  -0.000573   0.000109  -0.000073  -0.000034
    15  O    0.010777   0.000028  -0.000054   0.000117  -0.000006  -0.000004
    16  C    1.971497   0.144244   0.052808  -0.046913  -0.023358   0.001693
    17  C    0.873675   0.097166   0.063575   0.095404   0.009061   0.003361
    18  C   -4.836664  -0.163374  -0.149251  -0.045486  -0.008400   0.054574
    19  O    0.009667   0.001783   0.000376  -0.001121   0.000048   0.000053
    20  C   -1.960361  -0.225085   0.014458  -0.253338   0.014154   0.005755
    21  C   -1.661418  -0.243131  -0.107596   0.245480  -0.020504  -0.061784
    22  H   -0.278409  -0.010067  -0.040429   0.005006   0.001283  -0.002000
    23  H   -0.008759  -0.000430   0.000350   0.000167   0.000063   0.000030
    24  H   -0.068231  -0.018938  -0.000800   0.004045   0.000566   0.000602
    25  C   11.816330   0.728174   0.105434  -0.249173   0.009278  -0.022444
    26  H    0.728174   0.513526  -0.013750  -0.008462  -0.008555  -0.009015
    27  O    0.105434  -0.013750   8.176207   0.190138  -0.034671  -0.033950
    28  C   -0.249173  -0.008462   0.190138   5.237982   0.403517   0.407486
    29  H    0.009278  -0.008555  -0.034671   0.403517   0.586822  -0.068417
    30  H   -0.022444  -0.009015  -0.033950   0.407486  -0.068417   0.581568
    31  H    0.010657   0.003481  -0.069325   0.396492  -0.022142  -0.019844
              31
     1  C   -0.000023
     2  H   -0.000002
     3  H    0.000005
     4  C    0.000004
     5  H    0.000002
     6  N   -0.000025
     7  H    0.000003
     8  H   -0.000007
     9  H    0.000001
    10  C   -0.000012
    11  H    0.000059
    12  C   -0.000089
    13  C   -0.000290
    14  H    0.000065
    15  O    0.000017
    16  C    0.006107
    17  C   -0.007206
    18  C   -0.007691
    19  O   -0.000040
    20  C   -0.007649
    21  C    0.050976
    22  H   -0.000467
    23  H   -0.000018
    24  H    0.000182
    25  C    0.010657
    26  H    0.003481
    27  O   -0.069325
    28  C    0.396492
    29  H   -0.022142
    30  H   -0.019844
    31  H    0.460647
 Mulliken charges:
               1
     1  C   -0.435979
     2  H    0.181737
     3  H    0.174668
     4  C   -0.319783
     5  H    0.164052
     6  N    0.186776
     7  H    0.188276
     8  H    0.134976
     9  H    0.172464
    10  C   -0.679325
    11  H    0.153695
    12  C   -0.219544
    13  C    0.268772
    14  H    0.222454
    15  O   -0.232866
    16  C    1.130671
    17  C   -0.509429
    18  C   -1.176030
    19  O   -0.251584
    20  C   -0.143957
    21  C   -0.521426
    22  H    0.275068
    23  H    0.306353
    24  H    0.247851
    25  C    0.439831
    26  H    0.211270
    27  O   -0.135693
    28  C   -0.367720
    29  H    0.163022
    30  H    0.165265
    31  H    0.206133
 Sum of Mulliken charges =   0.00000
 Mulliken charges with hydrogens summed into heavy atoms:
               1
     1  C    0.108702
     4  C    0.151709
     6  N    0.186776
    10  C   -0.525630
    12  C    0.002910
    13  C    0.268772
    15  O   -0.232866
    16  C    1.130671
    17  C   -0.509429
    18  C   -0.900961
    19  O    0.054769
    20  C    0.103894
    21  C   -0.521426
    25  C    0.651101
    27  O   -0.135693
    28  C    0.166700
 Electronic spatial extent (au):  <R**2>=           5081.8910
 Charge=              0.0000 electrons
 Dipole moment (field-independent basis, Debye):
    X=              0.1697    Y=             -4.8226    Z=              0.7482  Tot=              4.8832
 Quadrupole moment (field-independent basis, Debye-Ang):
   XX=            -65.8656   YY=           -104.7750   ZZ=            -93.2922
   XY=             -1.3558   XZ=              0.1895   YZ=             -0.4002
 Traceless Quadrupole moment (field-independent basis, Debye-Ang):
   XX=             22.1120   YY=            -16.7974   ZZ=             -5.3146
   XY=             -1.3558   XZ=              0.1895   YZ=             -0.4002
 Octapole moment (field-independent basis, Debye-Ang**2):
  XXX=             -0.1557  YYY=            -44.3000  ZZZ=              1.8917  XYY=            -12.3930
  XXY=            -61.2861  XXZ=             11.0661  XZZ=             18.1524  YZZ=             -1.4681
  YYZ=              1.2481  XYZ=              1.4660
 Hexadecapole moment (field-independent basis, Debye-Ang**3):
 XXXX=          -4077.6244 YYYY=          -1642.3011 ZZZZ=           -322.5293 XXXY=              9.0947
 XXXZ=            -17.2248 YYYX=             87.9526 YYYZ=             -0.9317 ZZZX=             11.2475
 ZZZY=             -3.7615 XXYY=           -993.4665 XXZZ=           -829.1008 YYZZ=           -327.5932
 XXYZ=              1.4235 YYXZ=              4.8856 ZZXY=              2.1426
 N-N= 1.055529462753D+03 E-N=-3.853594861995D+03  KE= 7.436109183539D+02
 1\1\GINC-NXN32\FOpt\RwB97XD TD-FC\6-311++G(d,p)\C12H15N1O3\BTX008\23-A
 ug-2017\0\\# wb97xd 6-311++g** opt td=(nstates=1,root=1)\\restarted op
 timization\\0,1\C,-0.1471869387,0.6552483312,6.0160785406\H,0.46198822
 56,1.4400655752,5.5714107938\H,-0.5552039129,1.0175609162,6.9625974769
 \C,-1.3288417648,1.0905543331,3.8711012933\H,-1.4846065727,2.144715812
 9,4.1133152614\N,-1.2179943737,0.3085467974,5.0917416083\H,0.482370829
 9,-0.2163199169,6.2076617186\H,-2.1710144323,0.7349622663,3.2802629247
 \H,-0.4139090293,0.9928443974,3.2815272521\C,-2.0653862382,-0.68008000
 36,5.3578661167\H,-2.8103373671,-0.8825629399,4.5965782436\C,-2.086100
 9625,-1.4474765954,6.5117834545\C,-2.9907444452,-2.5947409172,6.593909
 8237\H,-1.3054459128,-1.3302412634,7.2613235032\O,-2.30979971,-3.54872
 33894,6.031822183\C,-4.2730259229,-2.6529022002,7.1829528734\C,-5.0076
 90601,-3.8754730277,7.186655206\C,-4.8724786743,-1.5178846683,7.764976
 3614\O,-4.4898973254,-5.0098179144,6.6479734883\C,-6.2661443343,-3.913
 5697781,7.7434479563\C,-6.1439058777,-1.5775151945,8.3200638496\H,-4.3
 442032065,-0.5717495825,7.7930040553\H,-3.6020643079,-4.8100914548,6.3
 058979543\H,-6.8038983224,-4.8545511669,7.7328751035\C,-6.8522514639,-
 2.7748013346,8.3132792328\H,-7.843012883,-2.8528104314,8.7392902766\O,
 -6.6125236574,-0.40409568,8.8501050767\C,-7.8925052917,-0.4128918209,9
 .4310978845\H,-8.6670608439,-0.6788219536,8.7012561869\H,-7.9481185928
 ,-1.1062311689,10.2792677733\H,-8.0716742385,0.6010435027,9.7878706056
 \\Version=ES64L-G09RevD.01\State=1-A\HF=-746.6223707\RMSD=6.932e-09\RM
 SF=1.028e-05\Dipole=2.0789527,3.7687086,-1.3119542\PG=C01 [X(C12H15N1O
 3)]\\@


 YE HAVE SOWN MUCH, AND BRING IN LITTLE.
 YE EAT, BUT YE HAVE NOT ENOUGH.
 YE DRINK, BUT YE ARE NOT FILLED WITH DRINK.
 YE CLOTHE YOU, BUT THERE IS NONE WARM.
 AND HE THAT EARNETH WAGES EARNETH WAGES TO PUT
 IT INTO A BAG WITH HOLES.
                                     HAGGAI I,6
 Job cpu time:       1 days  2 hours 12 minutes 22.2 seconds.
 File lengths (MBytes):  RWF=    206 Int=      0 D2E=      0 Chk=     29 Scr=      1
 Normal termination of Gaussian 09 at Wed Aug 23 21:10:27 2017.
