 Entering Gaussian System, Link 0=g09
 Input=1_5states_DCM.com
 Output=1_5states_DCM.out
 Initial command:
 /share/apps/gaussian/g09_D01/g09/l1.exe "/tmp/3820743.1.serial.q/Gau-14785.inp" -scrdir="/tmp/3820743.1.serial.q/"
 Entering Link 1 = /share/apps/gaussian/g09_D01/g09/l1.exe PID=     14786.
  
 Copyright (c) 1988,1990,1992,1993,1995,1998,2003,2009,2013,
            Gaussian, Inc.  All Rights Reserved.
  
 This is part of the Gaussian(R) 09 program.  It is based on
 the Gaussian(R) 03 system (copyright 2003, Gaussian, Inc.),
 the Gaussian(R) 98 system (copyright 1998, Gaussian, Inc.),
 the Gaussian(R) 94 system (copyright 1995, Gaussian, Inc.),
 the Gaussian 92(TM) system (copyright 1992, Gaussian, Inc.),
 the Gaussian 90(TM) system (copyright 1990, Gaussian, Inc.),
 the Gaussian 88(TM) system (copyright 1988, Gaussian, Inc.),
 the Gaussian 86(TM) system (copyright 1986, Carnegie Mellon
 University), and the Gaussian 82(TM) system (copyright 1983,
 Carnegie Mellon University). Gaussian is a federally registered
 trademark of Gaussian, Inc.
  
 This software contains proprietary and confidential information,
 including trade secrets, belonging to Gaussian, Inc.
  
 This software is provided under written license and may be
 used, copied, transmitted, or stored only in accord with that
 written license.
  
 The following legend is applicable only to US Government
 contracts under FAR:
  
                    RESTRICTED RIGHTS LEGEND
  
 Use, reproduction and disclosure by the US Government is
 subject to restrictions as set forth in subparagraphs (a)
 and (c) of the Commercial Computer Software - Restricted
 Rights clause in FAR 52.227-19.
  
 Gaussian, Inc.
 340 Quinnipiac St., Bldg. 40, Wallingford CT 06492
  
  
 ---------------------------------------------------------------
 Warning -- This program may not be used in any manner that
 competes with the business of Gaussian, Inc. or will provide
 assistance to any competitor of Gaussian, Inc.  The licensee
 of this program is prohibited from giving any competitor of
 Gaussian, Inc. access to this program.  By using this program,
 the user acknowledges that Gaussian, Inc. is engaged in the
 business of creating and licensing software in the field of
 computational chemistry and represents and warrants to the
 licensee that it is not a competitor of Gaussian, Inc. and that
 it will not use this program in any manner prohibited above.
 ---------------------------------------------------------------
  

 Cite this work as:
 Gaussian 09, Revision D.01,
 M. J. Frisch, G. W. Trucks, H. B. Schlegel, G. E. Scuseria, 
 M. A. Robb, J. R. Cheeseman, G. Scalmani, V. Barone, B. Mennucci, 
 G. A. Petersson, H. Nakatsuji, M. Caricato, X. Li, H. P. Hratchian, 
 A. F. Izmaylov, J. Bloino, G. Zheng, J. L. Sonnenberg, M. Hada, 
 M. Ehara, K. Toyota, R. Fukuda, J. Hasegawa, M. Ishida, T. Nakajima, 
 Y. Honda, O. Kitao, H. Nakai, T. Vreven, J. A. Montgomery, Jr., 
 J. E. Peralta, F. Ogliaro, M. Bearpark, J. J. Heyd, E. Brothers, 
 K. N. Kudin, V. N. Staroverov, T. Keith, R. Kobayashi, J. Normand, 
 K. Raghavachari, A. Rendell, J. C. Burant, S. S. Iyengar, J. Tomasi, 
 M. Cossi, N. Rega, J. M. Millam, M. Klene, J. E. Knox, J. B. Cross, 
 V. Bakken, C. Adamo, J. Jaramillo, R. Gomperts, R. E. Stratmann, 
 O. Yazyev, A. J. Austin, R. Cammi, C. Pomelli, J. W. Ochterski, 
 R. L. Martin, K. Morokuma, V. G. Zakrzewski, G. A. Voth, 
 P. Salvador, J. J. Dannenberg, S. Dapprich, A. D. Daniels, 
 O. Farkas, J. B. Foresman, J. V. Ortiz, J. Cioslowski, 
 and D. J. Fox, Gaussian, Inc., Wallingford CT, 2013.
 
 ******************************************
 Gaussian 09:  ES64L-G09RevD.01 24-Apr-2013
                19-Oct-2016 
 ******************************************
 %chk=1_5states_DCM.chk
 %mem=2GB
 %nproc=4
 Will use up to    4 processors via shared memory.
 ----------------------------------------------------------------------
 # wb97xd 6-311++g** td=(singlets,nstates=5) geom=allcheck SCRF=(PCM,so
 lvent=dichloromethane)
 ----------------------------------------------------------------------
 1/29=7,38=1/1;
 2/12=2,40=1/2;
 3/5=4,6=6,7=1111,11=9,14=-4,16=1,25=1,30=1,70=2201,72=9,74=-58/1,2,8,3;
 4//1;
 5/5=2,38=5,53=9/2;
 8/6=1,10=2,108=5/1;
 9/41=5,42=1,48=1,70=2/14;
 6/7=2,8=2,9=2,10=2/1;
 99/5=1,9=1/99;
 Structure from the checkpoint file:  "1_5states_DCM.chk"
 -----------
 Geom Opt s0
 -----------
 Charge =  0 Multiplicity = 1
 Redundant internal coordinates found in file.
 C,0,3.7032328488,1.6361533096,-0.0002467604
 H,0,4.7537188951,1.9205972189,0.0203893473
 H,0,3.2434062592,2.0529942041,-0.9013950972
 C,0,4.8410530039,-0.575768912,-0.0198300317
 H,0,5.4033429291,-0.3572802367,-0.9318009122
 N,0,3.6032409749,0.186838821,0.0065815548
 H,0,3.2076685626,2.0611235859,0.8774009629
 H,0,4.6166240669,-1.6410840498,0.007944551
 H,0,5.4595199296,-0.3232888021,0.845297156
 C,0,2.4155829591,-0.4115119059,0.0060553349
 H,0,2.4398471622,-1.4968922352,0.0069375145
 C,0,1.1891298215,0.2041745623,0.0053678174
 C,0,0.0054378542,-0.6063331278,0.0077445212
 H,0,1.1156498676,1.2803141867,-0.0008322428
 O,0,0.06843195,-1.8587049097,0.0124217627
 C,0,-1.3424231071,0.0335536253,0.0023499855
 C,0,-2.4990660184,-0.7810882524,-0.0058840221
 C,0,-1.5230235319,1.4254626873,0.0055339233
 O,0,-2.4321371335,-2.1199048908,-0.0081426109
 C,0,-3.7705190394,-0.1969385119,-0.0121567845
 C,0,-2.7801424099,2.000094594,0.0000647553
 H,0,-0.6606134815,2.0793731664,0.0129806021
 H,0,-1.4645979964,-2.3369803958,-0.0000004269
 H,0,-4.6351623001,-0.8505308421,-0.0187894603
 C,0,-3.9084796802,1.1773899922,-0.0091364451
 H,0,-2.8864493219,3.0780831103,0.0031298341
 H,0,-4.9001915501,1.6161673911,-0.0137741663
 Recover connectivity data from disk.
                          Input orientation:                          
 ---------------------------------------------------------------------
 Center     Atomic      Atomic             Coordinates (Angstroms)
 Number     Number       Type             X           Y           Z
 ---------------------------------------------------------------------
      1          6           0        3.703233    1.636153   -0.000247
      2          1           0        4.753719    1.920597    0.020389
      3          1           0        3.243406    2.052994   -0.901395
      4          6           0        4.841053   -0.575769   -0.019830
      5          1           0        5.403343   -0.357280   -0.931801
      6          7           0        3.603241    0.186839    0.006582
      7          1           0        3.207669    2.061124    0.877401
      8          1           0        4.616624   -1.641084    0.007945
      9          1           0        5.459520   -0.323289    0.845297
     10          6           0        2.415583   -0.411512    0.006055
     11          1           0        2.439847   -1.496892    0.006938
     12          6           0        1.189130    0.204175    0.005368
     13          6           0        0.005438   -0.606333    0.007745
     14          1           0        1.115650    1.280314   -0.000832
     15          8           0        0.068432   -1.858705    0.012422
     16          6           0       -1.342423    0.033554    0.002350
     17          6           0       -2.499066   -0.781088   -0.005884
     18          6           0       -1.523024    1.425463    0.005534
     19          8           0       -2.432137   -2.119905   -0.008143
     20          6           0       -3.770519   -0.196939   -0.012157
     21          6           0       -2.780142    2.000095    0.000065
     22          1           0       -0.660613    2.079373    0.012981
     23          1           0       -1.464598   -2.336980    0.000000
     24          1           0       -4.635162   -0.850531   -0.018789
     25          6           0       -3.908480    1.177390   -0.009136
     26          1           0       -2.886449    3.078083    0.003130
     27          1           0       -4.900192    1.616167   -0.013774
 ---------------------------------------------------------------------
                    Distance matrix (angstroms):
                    1          2          3          4          5
     1  C    0.000000
     2  H    1.088511   0.000000
     3  H    1.094196   1.774334   0.000000
     4  C    2.487492   2.498217   3.200004   0.000000
     5  H    2.780637   2.552921   3.236615   1.093434   0.000000
     6  N    1.452776   2.080795   2.106285   1.454114   2.101665
     7  H    1.093823   1.773270   1.779174   3.228958   3.734016
     8  H    3.402152   3.564341   4.044606   1.089053   1.774880
     9  H    2.763856   2.492720   3.689013   1.093020   1.778311
    10  C    2.418887   3.302396   2.753643   2.431163   3.131968
    11  H    3.378190   4.127156   3.751329   2.571959   3.310929
    12  C    2.893321   3.956340   2.908677   3.734366   4.353517
    13  C    4.324638   5.378820   4.287540   4.835790   5.484720
    14  H    2.611936   3.694044   2.436267   4.162215   4.683239
    15  O    5.042417   6.019560   5.120245   4.942153   5.622020
    16  C    5.294051   6.381552   5.091633   6.213465   6.821345
    17  C    6.656696   7.739682   6.466061   7.343003   7.967748
    18  C    5.230505   6.296259   4.892358   6.671360   7.213274
    19  O    7.193803   8.243967   7.100900   7.435307   8.084228
    20  C    7.695280   8.783373   7.419440   8.619904   9.221236
    21  C    6.493582   7.534308   6.090859   8.044755   8.567089
    22  H    4.386317   5.416665   4.009757   6.108943   6.603140
    23  H    6.518609   7.536236   6.499976   6.547022   7.208056
    24  H    8.701309   9.789371   8.442825   9.480198  10.092000
    25  C    7.625530   8.694073   7.260322   8.923452   9.482434
    26  H    6.745597   7.727370   6.280454   8.547833   9.021999
    27  H    8.603458   9.658770   8.203467   9.984812  10.530911
                    6          7          8          9         10
     6  N    0.000000
     7  H    2.104221   0.000000
     8  H    2.090036   4.055546   0.000000
     9  H    2.099868   3.279830   1.774322   0.000000
    10  C    1.329870   2.738717   2.521197   3.158744   0.000000
    11  H    2.046567   3.742557   2.181548   3.346433   1.085652
    12  C    2.414174   2.878055   3.892647   4.384054   1.372318
    13  C    3.684197   4.257453   4.725859   5.525271   2.418007
    14  H    2.717325   2.399479   4.559766   4.707089   2.133577
    15  O    4.084013   5.095886   4.553398   5.667011   2.757449
    16  C    4.948041   5.057676   6.189886   6.863259   3.784271
    17  C    6.178607   6.436240   7.167484   8.017056   4.928540
    18  C    5.273782   4.852181   6.862870   7.247016   4.345929
    19  O    6.461197   7.076199   7.065024   8.138454   5.139961
    20  C    7.383764   7.388184   8.510589   9.270642   6.189849
    21  C    6.635927   6.052051   8.244416   8.602591   5.728127
    22  H    4.664995   3.963731   6.456862   6.627335   3.958224
    23  H    5.661510   6.476359   6.120915   7.260364   4.331659
    24  H    8.303497   8.413732   9.285539  10.145306   7.064444
    25  C    7.576766   7.225407   8.978947   9.525834   6.520629
    26  H    7.104603   6.239938   8.863784   9.051728   6.347348
    27  H    8.622747   8.168817  10.058824  10.574645   7.591603
                   11         12         13         14         15
    11  H    0.000000
    12  C    2.111380   0.000000
    13  C    2.592189   1.434592   0.000000
    14  H    3.076757   1.078663   2.189083   0.000000
    15  O    2.398864   2.347655   1.253964   3.309121   0.000000
    16  C    4.080178   2.537298   1.492050   2.756183   2.360351
    17  C    4.990531   3.817546   2.510630   4.161199   2.784536
    18  C    4.923871   2.974445   2.542517   2.642670   3.649457
    19  O    4.911680   4.302918   2.869307   4.914096   2.514258
    20  C    6.344990   4.975873   3.798138   5.104611   4.183254
    21  C    6.283093   4.356659   3.814837   3.961727   4.796338
    22  H    4.733135   2.634004   2.767069   1.947767   4.004993
    23  H    3.993806   3.674203   2.270728   4.443253   1.605952
    24  H    7.104520   5.919068   4.647097   6.132916   4.810529
    25  C    6.888635   5.189700   4.301244   5.025191   5.003415
    26  H    7.021385   4.986953   4.683797   4.387344   5.753545
    27  H    7.972938   6.250914   5.385645   6.025223   6.063221
                   16         17         18         19         20
    16  C    0.000000
    17  C    1.414755   0.000000
    18  C    1.403580   2.412811   0.000000
    19  O    2.413498   1.340490   3.660096   0.000000
    20  C    2.439055   1.399237   2.771955   2.342879   0.000000
    21  C    2.436047   2.795356   1.382237   4.134679   2.409969
    22  H    2.156468   3.400368   1.082315   4.557705   3.854055
    23  H    2.373681   1.868411   3.762901   0.991625   3.145981
    24  H    3.409426   2.137264   3.855664   2.542586   1.083898
    25  C    2.809473   2.412902   2.398365   3.612719   1.381239
    26  H    3.413675   3.878576   2.142450   5.217816   3.392282
    27  H    3.893924   3.392978   3.382603   4.477674   2.136239
                   21         22         23         24         25
    21  C    0.000000
    22  H    2.121050   0.000000
    23  H    4.532204   4.488957   0.000000
    24  H    3.401106   4.937852   3.501766   0.000000
    25  C    1.396450   3.370860   4.280589   2.154211   0.000000
    26  H    1.083222   2.439644   5.598623   4.300289   2.158085
    27  H    2.154577   4.264891   5.237449   2.480900   1.084454
                   26         27
    26  H    0.000000
    27  H    2.488502   0.000000
 Stoichiometry    C11H13NO2
 Framework group  C1[X(C11H13NO2)]
 Deg. of freedom    75
 Full point group                 C1      NOp   1
 Largest Abelian subgroup         C1      NOp   1
 Largest concise Abelian subgroup C1      NOp   1
                         Standard orientation:                         
 ---------------------------------------------------------------------
 Center     Atomic      Atomic             Coordinates (Angstroms)
 Number     Number       Type             X           Y           Z
 ---------------------------------------------------------------------
      1          6           0        3.703405    1.636046   -0.000298
      2          1           0        4.753908    1.920449    0.020037
      3          1           0        3.243454    2.052491   -0.901566
      4          6           0        4.841115   -0.575940   -0.019036
      5          1           0        5.403269   -0.357902   -0.931199
      6          7           0        3.603344    0.186740    0.007220
      7          1           0        3.208002    2.061448    0.877232
      8          1           0        4.616640   -1.641231    0.009270
      9          1           0        5.459733   -0.323087    0.845874
     10          6           0        2.415657   -0.411554    0.007163
     11          1           0        2.439869   -1.496935    0.008546
     12          6           0        1.189234    0.204192    0.006386
     13          6           0        0.005503   -0.606258    0.009330
     14          1           0        1.115805    1.280332   -0.000302
     15          8           0        0.068438   -1.858630    0.014579
     16          6           0       -1.342328    0.033691    0.003854
     17          6           0       -2.499011   -0.780898   -0.003815
     18          6           0       -1.522861    1.425611    0.006420
     19          8           0       -2.432147   -2.119719   -0.005462
     20          6           0       -3.770437   -0.196690   -0.010155
     21          6           0       -2.779953    2.000301    0.000886
     22          1           0       -0.660418    2.079483    0.013424
     23          1           0       -1.464617   -2.336837    0.002625
     24          1           0       -4.635113   -0.850244   -0.016345
     25          6           0       -3.908331    1.177646   -0.007752
     26          1           0       -2.886207    3.078295    0.003467
     27          1           0       -4.900023    1.616469   -0.012434
 ---------------------------------------------------------------------
 Rotational constants (GHZ):      1.6181414      0.3216747      0.2692485
 Standard basis: 6-311++G(d,p) (5D, 7F)
 There are   413 symmetry adapted cartesian basis functions of A   symmetry.
 There are   399 symmetry adapted basis functions of A   symmetry.
   399 basis functions,   621 primitive gaussians,   413 cartesian basis functions
    51 alpha electrons       51 beta electrons
       nuclear repulsion energy       837.8217416912 Hartrees.
 NAtoms=   27 NActive=   27 NUniq=   27 SFac= 1.00D+00 NAtFMM=   60 NAOKFM=F Big=F
 Integral buffers will be    131072 words long.
 Raffenetti 1 integral format.
 Two-electron integral symmetry is turned on.
 Nuclear repulsion after empirical dispersion term =      837.8068005587 Hartrees.
 ------------------------------------------------------------------------------
 Polarizable Continuum Model (PCM)
 =================================
 Model                : PCM (using non-symmetric T matrix).
 Atomic radii         : UFF (Universal Force Field).
 Polarization charges : Total charges.
 Charge compensation  : None.
 Solution method      : On-the-fly selection.
 Cavity type          : Scaled VdW (van der Waals Surface) (Alpha=1.100).
 Cavity algorithm     : GePol (No added spheres)
                        Default sphere list used, NSphG=   27.
                        Lebedev-Laikov grids with approx.  5.0 points / Ang**2.
                        Smoothing algorithm: Karplus/York (Gamma=1.0000).
                        Polarization charges: spherical gaussians, with
                                              point-specific exponents (IZeta= 3).
                        Self-potential: point-specific (ISelfS= 7).
                        Self-field    : sphere-specific E.n sum rule (ISelfD= 2).
 Solvent              : Dichloromethane, Eps=   8.930000 Eps(inf)=   2.028346
 ------------------------------------------------------------------------------
 One-electron integrals computed using PRISM.
 NBasis=   399 RedAO= T EigKep=  1.60D-06  NBF=   399
 NBsUse=   396 1.00D-06 EigRej=  7.49D-07 NBFU=   396
 ExpMin= 3.60D-02 ExpMax= 8.59D+03 ExpMxC= 1.30D+03 IAcc=3 IRadAn=         5 AccDes= 0.00D+00
 Harris functional with IExCor= 4639 and IRadAn=       5 diagonalized for initial guess.
 HarFok:  IExCor= 4639 AccDes= 0.00D+00 IRadAn=         5 IDoV= 1 UseB2=F ITyADJ=14
 ICtDFT=  3500011 ScaDFX=  1.000000  1.000000  1.000000  1.000000
 FoFCou: FMM=F IPFlag=           0 FMFlag=      100000 FMFlg1=           0
         NFxFlg=           0 DoJE=T BraDBF=F KetDBF=T FulRan=T
         wScrn=  0.000000 ICntrl=     500 IOpCl=  0 I1Cent=   200000004 NGrid=           0
         NMat0=    1 NMatS0=      1 NMatT0=    0 NMatD0=    1 NMtDS0=    0 NMtDT0=    0
 Petite list used in FoFCou.
 Requested convergence on RMS density matrix=1.00D-08 within 128 cycles.
 Requested convergence on MAX density matrix=1.00D-06.
 Requested convergence on             energy=1.00D-06.
 No special actions if energy rises.
 Inv3:  Mode=1 IEnd=    13029168.
 Iteration    1 A*A^-1 deviation from unit magnitude is 6.88D-15 for   2084.
 Iteration    1 A*A^-1 deviation from orthogonality  is 3.13D-15 for   1886   1203.
 Iteration    1 A^-1*A deviation from unit magnitude is 6.44D-15 for   2084.
 Iteration    1 A^-1*A deviation from orthogonality  is 3.92D-10 for    658    615.
 Iteration    2 A*A^-1 deviation from unit magnitude is 7.33D-15 for   1041.
 Iteration    2 A*A^-1 deviation from orthogonality  is 5.96D-15 for   1246    494.
 Iteration    2 A^-1*A deviation from unit magnitude is 1.11D-15 for    178.
 Iteration    2 A^-1*A deviation from orthogonality  is 4.13D-16 for   2071   2052.
 Error on total polarization charges =  0.01405
 SCF Done:  E(RwB97XD) =  -632.164225465     A.U. after   17 cycles
            NFock= 17  Conv=0.27D-08     -V/T= 2.0040
 DoSCS=F DFT=T ScalE2(SS,OS)=  1.000000  1.000000
 ExpMin= 3.60D-02 ExpMax= 8.59D+03 ExpMxC= 1.30D+03 IAcc=3 IRadAn=         5 AccDes= 0.00D+00
 HarFok:  IExCor=  205 AccDes= 0.00D+00 IRadAn=         5 IDoV=-2 UseB2=F ITyADJ=14
 ICtDFT= 12500011 ScaDFX=  1.000000  1.000000  1.000000  1.000000
 Range of M.O.s used for correlation:    15   396
 NBasis=   399 NAE=    51 NBE=    51 NFC=    14 NFV=     0
 NROrb=    382 NOA=    37 NOB=    37 NVA=   345 NVB=   345

 **** Warning!!: The largest alpha MO coefficient is  0.17364624D+03

 Would need an additional         18909100000 words for in-memory AO integral storage.
 NEqPCM:  Using non-equilibrium solvation (IEInf=1, Eps=   8.9300, EpsInf=   2.0283)
 Inv3:  Mode=1 IEnd=    13029168.
 Iteration    1 A*A^-1 deviation from unit magnitude is 5.11D-15 for   1016.
 Iteration    1 A*A^-1 deviation from orthogonality  is 2.33D-15 for   2084   1160.
 Iteration    1 A^-1*A deviation from unit magnitude is 5.66D-15 for   1029.
 Iteration    1 A^-1*A deviation from orthogonality  is 3.86D-15 for   2030   2021.
 Orbital symmetries:
       Occupied  (A) (A) (A) (A) (A) (A) (A) (A) (A) (A) (A) (A)
                 (A) (A) (A) (A) (A) (A) (A) (A) (A) (A) (A) (A)
                 (A) (A) (A) (A) (A) (A) (A) (A) (A) (A) (A) (A)
                 (A) (A) (A) (A) (A) (A) (A) (A) (A) (A) (A) (A)
                 (A) (A) (A)
       Virtual   (A) (A) (A) (A) (A) (A) (A) (A) (A) (A) (A) (A)
                 (A) (A) (A) (A) (A) (A) (A) (A) (A) (A) (A) (A)
                 (A) (A) (A) (A) (A) (A) (A) (A) (A) (A) (A) (A)
                 (A) (A) (A) (A) (A) (A) (A) (A) (A) (A) (A) (A)
                 (A) (A) (A) (A) (A) (A) (A) (A) (A) (A) (A) (A)
                 (A) (A) (A) (A) (A) (A) (A) (A) (A) (A) (A) (A)
                 (A) (A) (A) (A) (A) (A) (A) (A) (A) (A) (A) (A)
                 (A) (A) (A) (A) (A) (A) (A) (A) (A) (A) (A) (A)
                 (A) (A) (A) (A) (A) (A) (A) (A) (A) (A) (A) (A)
                 (A) (A) (A) (A) (A) (A) (A) (A) (A) (A) (A) (A)
                 (A) (A) (A) (A) (A) (A) (A) (A) (A) (A) (A) (A)
                 (A) (A) (A) (A) (A) (A) (A) (A) (A) (A) (A) (A)
                 (A) (A) (A) (A) (A) (A) (A) (A) (A) (A) (A) (A)
                 (A) (A) (A) (A) (A) (A) (A) (A) (A) (A) (A) (A)
                 (A) (A) (A) (A) (A) (A) (A) (A) (A) (A) (A) (A)
                 (A) (A) (A) (A) (A) (A) (A) (A) (A) (A) (A) (A)
                 (A) (A) (A) (A) (A) (A) (A) (A) (A) (A) (A) (A)
                 (A) (A) (A) (A) (A) (A) (A) (A) (A) (A) (A) (A)
                 (A) (A) (A) (A) (A) (A) (A) (A) (A) (A) (A) (A)
                 (A) (A) (A) (A) (A) (A) (A) (A) (A) (A) (A) (A)
                 (A) (A) (A) (A) (A) (A) (A) (A) (A) (A) (A) (A)
                 (A) (A) (A) (A) (A) (A) (A) (A) (A) (A) (A) (A)
                 (A) (A) (A) (A) (A) (A) (A) (A) (A) (A) (A) (A)
                 (A) (A) (A) (A) (A) (A) (A) (A) (A) (A) (A) (A)
                 (A) (A) (A) (A) (A) (A) (A) (A) (A) (A) (A) (A)
                 (A) (A) (A) (A) (A) (A) (A) (A) (A) (A) (A) (A)
                 (A) (A) (A) (A) (A) (A) (A) (A) (A) (A) (A) (A)
                 (A) (A) (A) (A) (A) (A) (A) (A) (A) (A) (A) (A)
                 (A) (A) (A) (A) (A) (A) (A) (A) (A)
    20 initial guesses have been made.
 Convergence on wavefunction:    0.001000000000000
 Iteration     1 Dimension    20 NMult     0 NNew     20
 CISAX will form    20 AO SS matrices at one time.
 New state      2 was old state      7
 New state      3 was old state      2
 New state      4 was old state      3
 Iteration     2 Dimension    30 NMult    20 NNew     10
 New state      4 was old state      5
 New state      5 was old state      4
 Iteration     3 Dimension    40 NMult    30 NNew     10
 Iteration     4 Dimension    50 NMult    40 NNew     10
 Iteration     5 Dimension    60 NMult    50 NNew     10
 Iteration     6 Dimension    70 NMult    60 NNew     10
 Iteration     7 Dimension    72 NMult    70 NNew      2
 ***********************************************************************
 Excited states from <AA,BB:AA,BB> singles matrix:
 ***********************************************************************
 
 Ground to excited state transition densities written to RWF  633
 Ground to excited state transition electric dipole moments (Au):
       state          X           Y           Z        Dip. S.      Osc.
         1         2.8303      0.3475     -0.0051      8.1312      0.7991
         2         0.0147      0.0039      0.0133      0.0004      0.0000
         3        -0.3660      0.0611      0.0102      0.1378      0.0152
         4        -0.3730      0.5194     -0.0063      0.4090      0.0540
         5        -0.0153     -0.0123      0.5440      0.2963      0.0411
 Ground to excited state transition velocity dipole moments (Au):
       state          X           Y           Z        Dip. S.      Osc.
         1        -0.4139     -0.0534      0.0008      0.1742      0.7878
         2        -0.0024     -0.0007     -0.0013      0.0000      0.0000
         3         0.0560     -0.0149     -0.0017      0.0034      0.0136
         4         0.0645     -0.0996      0.0012      0.0141      0.0474
         5         0.0030      0.0028     -0.1131      0.0128      0.0410
 Ground to excited state transition magnetic dipole moments (Au):
       state          X           Y           Z
         1         0.0034     -0.0201      0.0367
         2        -0.0304      0.5595      0.0136
         3        -0.0074     -0.0033      1.0831
         4         0.0038     -0.0022      0.2490
         5        -0.2974      0.5369     -0.0200
 Ground to excited state transition velocity quadrupole moments (Au):
       state          XX          YY          ZZ          XY          XZ          YZ
         1        -0.7099      0.2330     -0.0428     -0.1504      0.0110     -0.0009
         2         0.0150      0.0001     -0.0007      0.0048     -0.0224      0.0308
         3         1.7622     -0.1930      0.0036      0.3983     -0.0028      0.0009
         4        -0.8959      0.0300      0.0069      0.0833      0.0033     -0.0018
         5         0.0374      0.0025      0.0125     -0.0203     -0.5410     -0.2727
 <0|del|b> * <b|rxdel|0> + <0|del|b> * <b|delr+rdel|0>
 Rotatory Strengths (R) in cgs (10**-40 erg-esu-cm/Gauss)
       state          XX          YY          ZZ    R(velocity)    E-M Angle
         1         3.7679     -2.1106     -3.0739     -0.4722       90.97
         2        -0.9197     -0.0285     -0.4763     -0.4748      101.76
         3        -5.4444     -3.3097     -0.8015     -3.1852       92.04
         4         1.7000      0.5868      0.4466      0.9111       88.52
         5        12.8203     -2.9667     -0.1451      3.2362       87.64
 1/2[<0|r|b>*<b|rxdel|0> + (<0|rxdel|b>*<b|r|0>)*]
 Rotatory Strengths (R) in cgs (10**-40 erg-esu-cm/Gauss)
       state          XX          YY          ZZ     R(length)
         1        -6.7549      4.9342      0.1326     -0.5627
         2         0.3147     -1.5323     -0.1286     -0.4487
         3        -1.9232      0.1434     -7.8031     -3.1943
         4         0.9957      0.8198      1.1085      0.9747
         5        -3.2266      4.6880      7.6905      3.0506
  1/2[<0|del|b>*<b|r|0> + (<0|r|b>*<b|del|0>)*] (Au)
       state          X           Y           Z        Dip. S.   Osc.(frdel)
         1        -1.1716     -0.0186      0.0000      1.1901      0.7934
         2         0.0000      0.0000      0.0000      0.0001      0.0000
         3        -0.0205     -0.0009      0.0000      0.0214      0.0143
         4        -0.0241     -0.0517      0.0000      0.0758      0.0505
         5         0.0000      0.0000     -0.0615      0.0616      0.0411

 Excitation energies and oscillator strengths:
 
 Excited State   1:      Singlet-A      4.0114 eV  309.08 nm  f=0.7991  <S**2>=0.000
      51 -> 52         0.68034
 This state for optimization and/or second-order correction.
 Total Energy, E(TD-HF/TD-KS) =  -632.016807727    
 Copying the excited state density for this state as the 1-particle RhoCI density.
 
 Excited State   2:      Singlet-A      4.3664 eV  283.95 nm  f=0.0000  <S**2>=0.000
      48 -> 52         0.68396
 
 Excited State   3:      Singlet-A      4.4985 eV  275.61 nm  f=0.0152  <S**2>=0.000
      49 -> 60         0.10297
      50 -> 52         0.65252
      51 -> 55        -0.14853
 
 Excited State   4:      Singlet-A      5.3872 eV  230.15 nm  f=0.0540  <S**2>=0.000
      49 -> 52         0.56870
      50 -> 52        -0.11072
      50 -> 55        -0.30853
      51 -> 55        -0.14941
      51 -> 60        -0.10337
 
 Excited State   5:      Singlet-A      5.6690 eV  218.71 nm  f=0.0411  <S**2>=0.000
      50 -> 53        -0.13541
      51 -> 53         0.57555
      51 -> 57        -0.20691
      51 -> 62        -0.14568
      51 -> 63        -0.17332
 SavETr:  write IOETrn=   770 NScale= 10 NData=  16 NLR=1 NState=    5 LETran=     100.

 **********************************************************************

            Population analysis using the SCF density.

 **********************************************************************

 Orbital symmetries:
       Occupied  (A) (A) (A) (A) (A) (A) (A) (A) (A) (A) (A) (A)
                 (A) (A) (A) (A) (A) (A) (A) (A) (A) (A) (A) (A)
                 (A) (A) (A) (A) (A) (A) (A) (A) (A) (A) (A) (A)
                 (A) (A) (A) (A) (A) (A) (A) (A) (A) (A) (A) (A)
                 (A) (A) (A)
       Virtual   (A) (A) (A) (A) (A) (A) (A) (A) (A) (A) (A) (A)
                 (A) (A) (A) (A) (A) (A) (A) (A) (A) (A) (A) (A)
                 (A) (A) (A) (A) (A) (A) (A) (A) (A) (A) (A) (A)
                 (A) (A) (A) (A) (A) (A) (A) (A) (A) (A) (A) (A)
                 (A) (A) (A) (A) (A) (A) (A) (A) (A) (A) (A) (A)
                 (A) (A) (A) (A) (A) (A) (A) (A) (A) (A) (A) (A)
                 (A) (A) (A) (A) (A) (A) (A) (A) (A) (A) (A) (A)
                 (A) (A) (A) (A) (A) (A) (A) (A) (A) (A) (A) (A)
                 (A) (A) (A) (A) (A) (A) (A) (A) (A) (A) (A) (A)
                 (A) (A) (A) (A) (A) (A) (A) (A) (A) (A) (A) (A)
                 (A) (A) (A) (A) (A) (A) (A) (A) (A) (A) (A) (A)
                 (A) (A) (A) (A) (A) (A) (A) (A) (A) (A) (A) (A)
                 (A) (A) (A) (A) (A) (A) (A) (A) (A) (A) (A) (A)
                 (A) (A) (A) (A) (A) (A) (A) (A) (A) (A) (A) (A)
                 (A) (A) (A) (A) (A) (A) (A) (A) (A) (A) (A) (A)
                 (A) (A) (A) (A) (A) (A) (A) (A) (A) (A) (A) (A)
                 (A) (A) (A) (A) (A) (A) (A) (A) (A) (A) (A) (A)
                 (A) (A) (A) (A) (A) (A) (A) (A) (A) (A) (A) (A)
                 (A) (A) (A) (A) (A) (A) (A) (A) (A) (A) (A) (A)
                 (A) (A) (A) (A) (A) (A) (A) (A) (A) (A) (A) (A)
                 (A) (A) (A) (A) (A) (A) (A) (A) (A) (A) (A) (A)
                 (A) (A) (A) (A) (A) (A) (A) (A) (A) (A) (A) (A)
                 (A) (A) (A) (A) (A) (A) (A) (A) (A) (A) (A) (A)
                 (A) (A) (A) (A) (A) (A) (A) (A) (A) (A) (A) (A)
                 (A) (A) (A) (A) (A) (A) (A) (A) (A) (A) (A) (A)
                 (A) (A) (A) (A) (A) (A) (A) (A) (A) (A) (A) (A)
                 (A) (A) (A) (A) (A) (A) (A) (A) (A) (A) (A) (A)
                 (A) (A) (A) (A) (A) (A) (A) (A) (A) (A) (A) (A)
                 (A) (A) (A) (A) (A) (A) (A) (A) (A)
 The electronic state is 1-A.
 Alpha  occ. eigenvalues --  -19.26457 -19.22874 -14.48949 -10.37909 -10.36107
 Alpha  occ. eigenvalues --  -10.34756 -10.32428 -10.32295 -10.30169 -10.30110
 Alpha  occ. eigenvalues --  -10.29993 -10.28765 -10.28719 -10.27250  -1.17198
 Alpha  occ. eigenvalues --   -1.13110  -1.08465  -0.96585  -0.89414  -0.86817
 Alpha  occ. eigenvalues --   -0.84659  -0.84089  -0.80071  -0.74285  -0.70628
 Alpha  occ. eigenvalues --   -0.69267  -0.65064  -0.62871  -0.61109  -0.59452
 Alpha  occ. eigenvalues --   -0.57941  -0.57481  -0.56079  -0.53437  -0.52404
 Alpha  occ. eigenvalues --   -0.52245  -0.52032  -0.50362  -0.49845  -0.48237
 Alpha  occ. eigenvalues --   -0.47852  -0.47796  -0.46643  -0.46072  -0.43371
 Alpha  occ. eigenvalues --   -0.43161  -0.41446  -0.34669  -0.34497  -0.30955
 Alpha  occ. eigenvalues --   -0.29014
 Alpha virt. eigenvalues --   -0.00360   0.03869   0.04630   0.05282   0.05309
 Alpha virt. eigenvalues --    0.06133   0.06276   0.06804   0.07699   0.07914
 Alpha virt. eigenvalues --    0.08054   0.08904   0.09375   0.09925   0.10547
 Alpha virt. eigenvalues --    0.11284   0.11811   0.12954   0.13410   0.13764
 Alpha virt. eigenvalues --    0.14275   0.14724   0.15286   0.15848   0.16149
 Alpha virt. eigenvalues --    0.16385   0.16586   0.16669   0.16995   0.17252
 Alpha virt. eigenvalues --    0.17973   0.18344   0.18972   0.19041   0.19182
 Alpha virt. eigenvalues --    0.19912   0.20006   0.20637   0.20996   0.21578
 Alpha virt. eigenvalues --    0.21739   0.22003   0.22052   0.22768   0.23008
 Alpha virt. eigenvalues --    0.24104   0.24632   0.24947   0.25252   0.25559
 Alpha virt. eigenvalues --    0.26219   0.26680   0.27008   0.27402   0.27557
 Alpha virt. eigenvalues --    0.28286   0.28393   0.29270   0.29681   0.29832
 Alpha virt. eigenvalues --    0.30387   0.31153   0.32040   0.32833   0.33109
 Alpha virt. eigenvalues --    0.33615   0.34248   0.34663   0.35286   0.35452
 Alpha virt. eigenvalues --    0.35870   0.36124   0.37405   0.37900   0.37970
 Alpha virt. eigenvalues --    0.38363   0.38849   0.39070   0.39620   0.39763
 Alpha virt. eigenvalues --    0.40762   0.41849   0.42547   0.43088   0.43751
 Alpha virt. eigenvalues --    0.44291   0.45258   0.46251   0.46576   0.48521
 Alpha virt. eigenvalues --    0.49811   0.50785   0.52071   0.52600   0.53305
 Alpha virt. eigenvalues --    0.55333   0.57896   0.58321   0.60215   0.60894
 Alpha virt. eigenvalues --    0.61091   0.62231   0.62555   0.63060   0.64403
 Alpha virt. eigenvalues --    0.64800   0.65369   0.66028   0.66875   0.68437
 Alpha virt. eigenvalues --    0.68559   0.69693   0.69739   0.70387   0.71398
 Alpha virt. eigenvalues --    0.71547   0.72192   0.72821   0.73596   0.74246
 Alpha virt. eigenvalues --    0.74739   0.75322   0.76988   0.77561   0.79111
 Alpha virt. eigenvalues --    0.79798   0.80585   0.80962   0.82875   0.84184
 Alpha virt. eigenvalues --    0.85204   0.86837   0.87595   0.88630   0.89227
 Alpha virt. eigenvalues --    0.91139   0.94075   0.94571   0.94735   0.95215
 Alpha virt. eigenvalues --    0.96685   0.97412   0.98903   0.99587   1.00101
 Alpha virt. eigenvalues --    1.01833   1.03703   1.04203   1.05545   1.06366
 Alpha virt. eigenvalues --    1.07571   1.07830   1.08909   1.11552   1.11654
 Alpha virt. eigenvalues --    1.13436   1.14698   1.15045   1.16203   1.17127
 Alpha virt. eigenvalues --    1.17763   1.18613   1.18678   1.21022   1.21447
 Alpha virt. eigenvalues --    1.22108   1.28029   1.31249   1.31927   1.32740
 Alpha virt. eigenvalues --    1.33765   1.36421   1.38988   1.39804   1.44218
 Alpha virt. eigenvalues --    1.44947   1.46693   1.51691   1.51875   1.52735
 Alpha virt. eigenvalues --    1.52917   1.55463   1.57541   1.58849   1.59417
 Alpha virt. eigenvalues --    1.60366   1.61521   1.63798   1.64030   1.64857
 Alpha virt. eigenvalues --    1.65260   1.65535   1.67357   1.67896   1.69631
 Alpha virt. eigenvalues --    1.71280   1.72814   1.74302   1.74806   1.75932
 Alpha virt. eigenvalues --    1.77647   1.78243   1.81281   1.81870   1.82231
 Alpha virt. eigenvalues --    1.82547   1.83824   1.84246   1.86454   1.87571
 Alpha virt. eigenvalues --    1.90376   1.91466   1.93220   1.96590   1.98870
 Alpha virt. eigenvalues --    1.99386   1.99911   2.01518   2.01856   2.03123
 Alpha virt. eigenvalues --    2.04849   2.04899   2.06226   2.07479   2.08000
 Alpha virt. eigenvalues --    2.09767   2.11636   2.12503   2.14223   2.15142
 Alpha virt. eigenvalues --    2.17967   2.19589   2.22694   2.25769   2.25977
 Alpha virt. eigenvalues --    2.26737   2.30327   2.33323   2.35327   2.37603
 Alpha virt. eigenvalues --    2.40563   2.42170   2.46149   2.47832   2.48380
 Alpha virt. eigenvalues --    2.51410   2.54714   2.55951   2.56353   2.57295
 Alpha virt. eigenvalues --    2.59219   2.60067   2.62087   2.63777   2.64436
 Alpha virt. eigenvalues --    2.67405   2.70230   2.71323   2.72849   2.73578
 Alpha virt. eigenvalues --    2.76503   2.77676   2.80298   2.81394   2.81731
 Alpha virt. eigenvalues --    2.82611   2.83602   2.84280   2.85537   2.86182
 Alpha virt. eigenvalues --    2.86498   2.89011   2.90350   2.90717   2.92250
 Alpha virt. eigenvalues --    2.94271   2.95121   2.96663   2.97793   2.99068
 Alpha virt. eigenvalues --    3.03388   3.03788   3.08186   3.13940   3.16684
 Alpha virt. eigenvalues --    3.17995   3.18521   3.21407   3.21627   3.26067
 Alpha virt. eigenvalues --    3.28660   3.29428   3.29532   3.31679   3.37957
 Alpha virt. eigenvalues --    3.41438   3.46626   3.50523   3.56554   3.60469
 Alpha virt. eigenvalues --    3.62779   3.64495   3.69120   3.69468   3.72557
 Alpha virt. eigenvalues --    3.75321   3.80787   3.81953   3.83463   3.86834
 Alpha virt. eigenvalues --    3.89404   3.94998   3.95728   4.02404   4.09469
 Alpha virt. eigenvalues --    4.12546   4.14475   4.18287   4.29051   4.29612
 Alpha virt. eigenvalues --    4.40102   4.64304   4.94343   4.98571   5.12912
 Alpha virt. eigenvalues --    5.18025   5.18896   5.41793   5.61985   5.88259
 Alpha virt. eigenvalues --    5.93831  23.72831  23.94884  24.04536  24.06181
 Alpha virt. eigenvalues --   24.06557  24.08316  24.09695  24.16731  24.24279
 Alpha virt. eigenvalues --   24.27659  24.33225  35.71445  50.12703  50.19264
          Condensed to atoms (all electrons):
               1          2          3          4          5          6
     1  C    5.243761   0.388562   0.415549  -0.057064   0.002954   0.235915
     2  H    0.388562   0.453591  -0.016652   0.003219  -0.005702  -0.045993
     3  H    0.415549  -0.016652   0.519351  -0.001453  -0.001074  -0.040781
     4  C   -0.057064   0.003219  -0.001453   5.168586   0.403489   0.242513
     5  H    0.002954  -0.005702  -0.001074   0.403489   0.534094  -0.043172
     6  N    0.235915  -0.045993  -0.040781   0.242513  -0.043172   6.798469
     7  H    0.415042  -0.018599  -0.053299   0.003023   0.002402  -0.036205
     8  H   -0.001992   0.003645  -0.001469   0.412575  -0.027594  -0.098135
     9  H   -0.002656  -0.005403   0.002682   0.405320  -0.057929  -0.042183
    10  C    0.170496   0.028288   0.000693  -0.070286  -0.023338   0.202603
    11  H    0.005816  -0.001165  -0.000176  -0.039021   0.003620  -0.058715
    12  C    0.135943   0.021819  -0.017486  -0.036605   0.009152  -0.204925
    13  C   -0.265110  -0.020153   0.002019  -0.094772   0.001057   0.007816
    14  H    0.020740   0.003040  -0.003162  -0.007568   0.001052  -0.031295
    15  O   -0.001745   0.000035   0.000393  -0.001231  -0.000028   0.002699
    16  C   -0.194898  -0.005266  -0.002243   0.004769  -0.000386  -0.021427
    17  C   -0.019327   0.000735  -0.001431  -0.002917  -0.000327   0.002355
    18  C   -0.029085  -0.006032   0.001529  -0.012120   0.000364   0.000802
    19  O   -0.000176  -0.000010   0.000049   0.000320   0.000004  -0.000155
    20  C    0.004122   0.000206  -0.000874  -0.000526   0.000003   0.000585
    21  C   -0.001954  -0.000222   0.001713   0.000365   0.000003  -0.000136
    22  H   -0.001489  -0.000205  -0.001712  -0.001576  -0.000105  -0.004859
    23  H   -0.001131  -0.000101   0.000034   0.000035   0.000015   0.000061
    24  H    0.000042   0.000002  -0.000015   0.000011   0.000000  -0.000003
    25  C   -0.004894  -0.000210   0.000458  -0.000457  -0.000003   0.000081
    26  H   -0.000222  -0.000016   0.000013   0.000068   0.000002   0.000102
    27  H   -0.000113  -0.000006   0.000016  -0.000001   0.000000  -0.000012
               7          8          9         10         11         12
     1  C    0.415042  -0.001992  -0.002656   0.170496   0.005816   0.135943
     2  H   -0.018599   0.003645  -0.005403   0.028288  -0.001165   0.021819
     3  H   -0.053299  -0.001469   0.002682   0.000693  -0.000176  -0.017486
     4  C    0.003023   0.412575   0.405320  -0.070286  -0.039021  -0.036605
     5  H    0.002402  -0.027594  -0.057929  -0.023338   0.003620   0.009152
     6  N   -0.036205  -0.098135  -0.042183   0.202603  -0.058715  -0.204925
     7  H    0.522735  -0.002117  -0.001226   0.011759   0.000876  -0.026187
     8  H   -0.002117   0.531434  -0.026329   0.064404  -0.010938   0.001933
     9  H   -0.001226  -0.026329   0.534010  -0.018819   0.002712   0.009897
    10  C    0.011759   0.064404  -0.018819  11.738312   0.316411   2.963097
    11  H    0.000876  -0.010938   0.002712   0.316411   0.459144   0.061068
    12  C   -0.026187   0.001933   0.009897   2.963097   0.061068  11.765982
    13  C   -0.010214   0.000506   0.001306  -3.890141   0.101198   1.345299
    14  H    0.003119  -0.003313   0.000665   0.089144   0.000250   0.633701
    15  O    0.000465   0.000433   0.000016   0.002326   0.008141  -0.233377
    16  C   -0.003549   0.005672   0.000095  -2.845245  -0.072982  -4.508199
    17  C   -0.001524   0.003310  -0.000299  -1.303425  -0.063944  -3.011576
    18  C   -0.000691  -0.003421   0.000376  -1.592142   0.044765  -1.402908
    19  O    0.000043  -0.000096   0.000004   0.006875   0.000226  -0.045286
    20  C   -0.000876   0.000066  -0.000001  -0.200636  -0.002478  -0.069545
    21  C    0.002015  -0.000199   0.000002   0.108979   0.002819  -0.252628
    22  H   -0.003155   0.000538  -0.000078  -0.144515   0.002000  -0.111352
    23  H    0.000008   0.000028   0.000023  -0.013714   0.000748   0.006817
    24  H   -0.000014   0.000005   0.000000   0.000648  -0.000220   0.004309
    25  C    0.000398  -0.000019  -0.000001  -0.180856  -0.000360  -0.568552
    26  H    0.000061  -0.000003   0.000003   0.005285  -0.000204   0.004612
    27  H    0.000012   0.000000   0.000000  -0.002163   0.000028  -0.011495
              13         14         15         16         17         18
     1  C   -0.265110   0.020740  -0.001745  -0.194898  -0.019327  -0.029085
     2  H   -0.020153   0.003040   0.000035  -0.005266   0.000735  -0.006032
     3  H    0.002019  -0.003162   0.000393  -0.002243  -0.001431   0.001529
     4  C   -0.094772  -0.007568  -0.001231   0.004769  -0.002917  -0.012120
     5  H    0.001057   0.001052  -0.000028  -0.000386  -0.000327   0.000364
     6  N    0.007816  -0.031295   0.002699  -0.021427   0.002355   0.000802
     7  H   -0.010214   0.003119   0.000465  -0.003549  -0.001524  -0.000691
     8  H    0.000506  -0.003313   0.000433   0.005672   0.003310  -0.003421
     9  H    0.001306   0.000665   0.000016   0.000095  -0.000299   0.000376
    10  C   -3.890141   0.089144   0.002326  -2.845245  -1.303425  -1.592142
    11  H    0.101198   0.000250   0.008141  -0.072982  -0.063944   0.044765
    12  C    1.345299   0.633701  -0.233377  -4.508199  -3.011576  -1.402908
    13  C   13.096788  -0.064708   0.903732   0.958762  -4.168687   0.581752
    14  H   -0.064708   0.576843  -0.014466  -0.205270  -0.031089  -0.057232
    15  O    0.903732  -0.014466   8.245336  -0.150836  -0.111222  -0.224451
    16  C    0.958762  -0.205270  -0.150836  16.513313   1.471295  -2.713682
    17  C   -4.168687  -0.031089  -0.111222   1.471295  15.758953  -3.610013
    18  C    0.581752  -0.057232  -0.224451  -2.713682  -3.610013  13.501450
    19  O   -0.062039  -0.001014  -0.006368   0.092032   0.349208  -0.026853
    20  C   -0.760880   0.016175  -0.061511  -2.286569   0.197975   1.223569
    21  C   -0.275348  -0.079813   0.004746  -1.498132   0.202930   0.951069
    22  H    0.007149  -0.012984  -0.000270  -0.063530   0.032059   0.666529
    23  H    0.035615  -0.001031   0.074402  -0.138139  -0.002005   0.035623
    24  H    0.000787   0.000878   0.001232  -0.082908  -0.092243   0.004019
    25  C   -0.809410  -0.018889  -0.031054  -0.291382  -0.114586   0.485938
    26  H   -0.001626   0.002977   0.000688   0.032374   0.030574  -0.068198
    27  H   -0.006548  -0.001351  -0.000411   0.071042   0.032927  -0.044772
              19         20         21         22         23         24
     1  C   -0.000176   0.004122  -0.001954  -0.001489  -0.001131   0.000042
     2  H   -0.000010   0.000206  -0.000222  -0.000205  -0.000101   0.000002
     3  H    0.000049  -0.000874   0.001713  -0.001712   0.000034  -0.000015
     4  C    0.000320  -0.000526   0.000365  -0.001576   0.000035   0.000011
     5  H    0.000004   0.000003   0.000003  -0.000105   0.000015   0.000000
     6  N   -0.000155   0.000585  -0.000136  -0.004859   0.000061  -0.000003
     7  H    0.000043  -0.000876   0.002015  -0.003155   0.000008  -0.000014
     8  H   -0.000096   0.000066  -0.000199   0.000538   0.000028   0.000005
     9  H    0.000004  -0.000001   0.000002  -0.000078   0.000023   0.000000
    10  C    0.006875  -0.200636   0.108979  -0.144515  -0.013714   0.000648
    11  H    0.000226  -0.002478   0.002819   0.002000   0.000748  -0.000220
    12  C   -0.045286  -0.069545  -0.252628  -0.111352   0.006817   0.004309
    13  C   -0.062039  -0.760880  -0.275348   0.007149   0.035615   0.000787
    14  H   -0.001014   0.016175  -0.079813  -0.012984  -0.001031   0.000878
    15  O   -0.006368  -0.061511   0.004746  -0.000270   0.074402   0.001232
    16  C    0.092032  -2.286569  -1.498132  -0.063530  -0.138139  -0.082908
    17  C    0.349208   0.197975   0.202930   0.032059  -0.002005  -0.092243
    18  C   -0.026853   1.223569   0.951069   0.666529   0.035623   0.004019
    19  O    8.184027  -0.383008   0.007219  -0.002902   0.249325  -0.023304
    20  C   -0.383008   8.010486  -0.229490   0.041269   0.068791   0.535225
    21  C    0.007219  -0.229490   6.957343  -0.041339   0.009668  -0.001858
    22  H   -0.002902   0.041269  -0.041339   0.519879   0.001869  -0.000787
    23  H    0.249325   0.068791   0.009668   0.001869   0.297602   0.002058
    24  H   -0.023304   0.535225  -0.001858  -0.000787   0.002058   0.446214
    25  C    0.013568   0.501504   0.412569   0.036459  -0.004425  -0.031587
    26  H    0.000279   0.013858   0.369492  -0.015744   0.000307   0.001529
    27  H    0.000665  -0.086204  -0.035590   0.002228  -0.000387  -0.009604
              25         26         27
     1  C   -0.004894  -0.000222  -0.000113
     2  H   -0.000210  -0.000016  -0.000006
     3  H    0.000458   0.000013   0.000016
     4  C   -0.000457   0.000068  -0.000001
     5  H   -0.000003   0.000002   0.000000
     6  N    0.000081   0.000102  -0.000012
     7  H    0.000398   0.000061   0.000012
     8  H   -0.000019  -0.000003   0.000000
     9  H   -0.000001   0.000003   0.000000
    10  C   -0.180856   0.005285  -0.002163
    11  H   -0.000360  -0.000204   0.000028
    12  C   -0.568552   0.004612  -0.011495
    13  C   -0.809410  -0.001626  -0.006548
    14  H   -0.018889   0.002977  -0.001351
    15  O   -0.031054   0.000688  -0.000411
    16  C   -0.291382   0.032374   0.071042
    17  C   -0.114586   0.030574   0.032927
    18  C    0.485938  -0.068198  -0.044772
    19  O    0.013568   0.000279   0.000665
    20  C    0.501504   0.013858  -0.086204
    21  C    0.412569   0.369492  -0.035590
    22  H    0.036459  -0.015744   0.002228
    23  H   -0.004425   0.000307  -0.000387
    24  H   -0.031587   0.001529  -0.009604
    25  C    6.674087  -0.065615   0.423374
    26  H   -0.065615   0.445943  -0.007931
    27  H    0.423374  -0.007931   0.444739
 Mulliken charges:
               1
     1  C   -0.457087
     2  H    0.222593
     3  H    0.197329
     4  C   -0.318696
     5  H    0.201447
     6  N    0.133994
     7  H    0.195698
     8  H    0.151076
     9  H    0.197813
    10  C    0.575960
    11  H    0.240381
    12  C   -0.463506
    13  C   -0.614149
    14  H    0.184602
    15  O   -0.407674
    16  C    1.935290
    17  C    0.452291
    18  C   -1.706186
    19  O   -0.352636
    20  C   -0.531235
    21  C   -0.614223
    22  H    0.096624
    23  H    0.377903
    24  H    0.245583
    25  C   -0.426138
    26  H    0.251393
    27  H    0.231556
 Sum of Mulliken charges =   0.00000
 Mulliken charges with hydrogens summed into heavy atoms:
               1
     1  C    0.158532
     4  C    0.231640
     6  N    0.133994
    10  C    0.816340
    12  C   -0.278904
    13  C   -0.614149
    15  O   -0.407674
    16  C    1.935290
    17  C    0.452291
    18  C   -1.609562
    19  O    0.025267
    20  C   -0.285652
    21  C   -0.362829
    25  C   -0.194583
 Electronic spatial extent (au):  <R**2>=           3936.3736
 Charge=              0.0000 electrons
 Dipole moment (field-independent basis, Debye):
    X=              7.9078    Y=              5.1227    Z=             -0.0432  Tot=              9.4221
 Quadrupole moment (field-independent basis, Debye-Ang):
   XX=            -50.7058   YY=            -83.9767   ZZ=            -87.7112
   XY=             -4.8372   XZ=             -0.1081   YZ=              0.0521
 Traceless Quadrupole moment (field-independent basis, Debye-Ang):
   XX=             23.4255   YY=             -9.8455   ZZ=            -13.5800
   XY=             -4.8372   XZ=             -0.1081   YZ=              0.0521
 Octapole moment (field-independent basis, Debye-Ang**2):
  XXX=            134.5871  YYY=             22.6770  ZZZ=             -0.1494  XYY=             25.9060
  XXY=             24.3208  XXZ=             -0.5942  XZZ=             14.6036  YZZ=             -6.5646
  YYZ=              0.0699  XYZ=              0.1498
 Hexadecapole moment (field-independent basis, Debye-Ang**3):
 XXXX=          -3377.8642 YYYY=           -880.0433 ZZZZ=           -109.9314 XXXY=            -51.7184
 XXXZ=              0.6613 YYYX=            -30.0932 YYYZ=              0.1626 ZZZX=             -0.9682
 ZZZY=             -0.0821 XXYY=           -813.4790 XXZZ=           -767.7720 YYZZ=           -176.1154
 XXYZ=              0.3467 YYXZ=              0.0754 ZZXY=             18.3349
 N-N= 8.378068005587D+02 E-N=-3.149911025969D+03  KE= 6.296261001490D+02
 1\1\GINC-DN92\SP\RwB97XD TD-FC\6-311++G(d,p)\C11H13N1O2\CA12053\19-Oct
 -2016\0\\# wb97xd 6-311++g** td=(singlets,nstates=5) geom=allcheck SCR
 F=(PCM,solvent=dichloromethane)\\Geom Opt s0\\0,1\C,0,3.7032328488,1.6
 361533096,-0.0002467604\H,0,4.7537188951,1.9205972189,0.0203893473\H,0
 ,3.2434062592,2.0529942041,-0.9013950972\C,0,4.8410530039,-0.575768912
 ,-0.0198300317\H,0,5.4033429291,-0.3572802367,-0.9318009122\N,0,3.6032
 409749,0.186838821,0.0065815548\H,0,3.2076685626,2.0611235859,0.877400
 9629\H,0,4.6166240669,-1.6410840498,0.007944551\H,0,5.4595199296,-0.32
 32888021,0.845297156\C,0,2.4155829591,-0.4115119059,0.0060553349\H,0,2
 .4398471622,-1.4968922352,0.0069375145\C,0,1.1891298215,0.2041745623,0
 .0053678174\C,0,0.0054378542,-0.6063331278,0.0077445212\H,0,1.11564986
 76,1.2803141867,-0.0008322428\O,0,0.06843195,-1.8587049097,0.012421762
 7\C,0,-1.3424231071,0.0335536253,0.0023499855\C,0,-2.4990660184,-0.781
 0882524,-0.0058840221\C,0,-1.5230235319,1.4254626873,0.0055339233\O,0,
 -2.4321371335,-2.1199048908,-0.0081426109\C,0,-3.7705190394,-0.1969385
 119,-0.0121567845\C,0,-2.7801424099,2.000094594,0.0000647553\H,0,-0.66
 06134815,2.0793731664,0.0129806021\H,0,-1.4645979964,-2.3369803958,-0.
 0000004269\H,0,-4.6351623001,-0.8505308421,-0.0187894603\C,0,-3.908479
 6802,1.1773899922,-0.0091364451\H,0,-2.8864493219,3.0780831103,0.00312
 98341\H,0,-4.9001915501,1.6161673911,-0.0137741663\\Version=ES64L-G09R
 evD.01\State=1-A\HF=-632.1642255\RMSD=2.671e-09\PG=C01 [X(C11H13N1O2)]
 \\@


 REVOLUTIONS HAVE NEVER LIGHTENED THE BURDEN OF TYRANNY:
 THEY HAVE MERELY SHIFTED IT TO OTHER SHOULDERS.
                                   -- G. B. SHAW (1903)
 Job cpu time:       0 days  1 hours 48 minutes 43.6 seconds.
 File lengths (MBytes):  RWF=    422 Int=      0 D2E=      0 Chk=     37 Scr=      1
 Normal termination of Gaussian 09 at Wed Oct 19 17:02:32 2016.
