 Entering Gaussian System, Link 0=g09
 Input=1_optS1_DCM.com
 Output=1_optS1_DCM.out
 Initial command:
 /share/apps/gaussian/g09_D01/g09/l1.exe "/tmp/3907721.1.smserial.q/Gau-52490.inp" -scrdir="/tmp/3907721.1.smserial.q/"
 Entering Link 1 = /share/apps/gaussian/g09_D01/g09/l1.exe PID=     52491.
  
 Copyright (c) 1988,1990,1992,1993,1995,1998,2003,2009,2013,
            Gaussian, Inc.  All Rights Reserved.
  
 This is part of the Gaussian(R) 09 program.  It is based on
 the Gaussian(R) 03 system (copyright 2003, Gaussian, Inc.),
 the Gaussian(R) 98 system (copyright 1998, Gaussian, Inc.),
 the Gaussian(R) 94 system (copyright 1995, Gaussian, Inc.),
 the Gaussian 92(TM) system (copyright 1992, Gaussian, Inc.),
 the Gaussian 90(TM) system (copyright 1990, Gaussian, Inc.),
 the Gaussian 88(TM) system (copyright 1988, Gaussian, Inc.),
 the Gaussian 86(TM) system (copyright 1986, Carnegie Mellon
 University), and the Gaussian 82(TM) system (copyright 1983,
 Carnegie Mellon University). Gaussian is a federally registered
 trademark of Gaussian, Inc.
  
 This software contains proprietary and confidential information,
 including trade secrets, belonging to Gaussian, Inc.
  
 This software is provided under written license and may be
 used, copied, transmitted, or stored only in accord with that
 written license.
  
 The following legend is applicable only to US Government
 contracts under FAR:
  
                    RESTRICTED RIGHTS LEGEND
  
 Use, reproduction and disclosure by the US Government is
 subject to restrictions as set forth in subparagraphs (a)
 and (c) of the Commercial Computer Software - Restricted
 Rights clause in FAR 52.227-19.
  
 Gaussian, Inc.
 340 Quinnipiac St., Bldg. 40, Wallingford CT 06492
  
  
 ---------------------------------------------------------------
 Warning -- This program may not be used in any manner that
 competes with the business of Gaussian, Inc. or will provide
 assistance to any competitor of Gaussian, Inc.  The licensee
 of this program is prohibited from giving any competitor of
 Gaussian, Inc. access to this program.  By using this program,
 the user acknowledges that Gaussian, Inc. is engaged in the
 business of creating and licensing software in the field of
 computational chemistry and represents and warrants to the
 licensee that it is not a competitor of Gaussian, Inc. and that
 it will not use this program in any manner prohibited above.
 ---------------------------------------------------------------
  

 Cite this work as:
 Gaussian 09, Revision D.01,
 M. J. Frisch, G. W. Trucks, H. B. Schlegel, G. E. Scuseria, 
 M. A. Robb, J. R. Cheeseman, G. Scalmani, V. Barone, B. Mennucci, 
 G. A. Petersson, H. Nakatsuji, M. Caricato, X. Li, H. P. Hratchian, 
 A. F. Izmaylov, J. Bloino, G. Zheng, J. L. Sonnenberg, M. Hada, 
 M. Ehara, K. Toyota, R. Fukuda, J. Hasegawa, M. Ishida, T. Nakajima, 
 Y. Honda, O. Kitao, H. Nakai, T. Vreven, J. A. Montgomery, Jr., 
 J. E. Peralta, F. Ogliaro, M. Bearpark, J. J. Heyd, E. Brothers, 
 K. N. Kudin, V. N. Staroverov, T. Keith, R. Kobayashi, J. Normand, 
 K. Raghavachari, A. Rendell, J. C. Burant, S. S. Iyengar, J. Tomasi, 
 M. Cossi, N. Rega, J. M. Millam, M. Klene, J. E. Knox, J. B. Cross, 
 V. Bakken, C. Adamo, J. Jaramillo, R. Gomperts, R. E. Stratmann, 
 O. Yazyev, A. J. Austin, R. Cammi, C. Pomelli, J. W. Ochterski, 
 R. L. Martin, K. Morokuma, V. G. Zakrzewski, G. A. Voth, 
 P. Salvador, J. J. Dannenberg, S. Dapprich, A. D. Daniels, 
 O. Farkas, J. B. Foresman, J. V. Ortiz, J. Cioslowski, 
 and D. J. Fox, Gaussian, Inc., Wallingford CT, 2013.
 
 ******************************************
 Gaussian 09:  ES64L-G09RevD.01 24-Apr-2013
                30-Jan-2017 
 ******************************************
 %chk=1_optS1_DCM.chk
 %mem=4GB
 %nproc=2
 Will use up to    2 processors via shared memory.
 ----------------------------------------------------------------------
 # wb97xd 6-311++g** opt td=(nstates=1,root=1) SCRF=(PCM,solvent=dichlo
 romethane)
 ----------------------------------------------------------------------
 1/14=-1,18=20,19=15,26=3,38=1/1,3;
 2/9=110,12=2,17=6,18=5,40=1/2;
 3/5=4,6=6,7=1111,11=9,16=1,25=1,30=1,70=2201,71=1,72=9,74=-58/1,2,8,3;
 4//1;
 5/5=2,38=5,53=9/2;
 8/6=1,10=2,107=1,108=1/1;
 9/8=1,15=2,41=1,42=1,70=2/14;
 10/5=4/2;
 6/7=2,8=2,9=2,10=2/1;
 7/12=6,13=5,14=1/1,2,3,16;
 1/14=-1,18=20,19=15,26=3/3(2);
 2/9=110/2;
 99//99;
 2/9=110/2;
 3/5=4,6=6,7=1111,11=9,16=1,25=1,30=1,70=2205,71=1,72=9,74=-58/1,2,8,3;
 4/5=5,16=3,69=1/1;
 5/5=2,38=5,53=9/2;
 8/6=1,10=2,107=1,108=1/1;
 9/8=1,15=2,41=1,42=1,49=4,70=2/14;
 10/5=4/2;
 7/12=6,13=5,14=1/1,2,3,16;
 1/14=-1,18=20,19=15,26=3/3(-8);
 2/9=110/2;
 6/7=2,8=2,9=2,10=2/1;
 99//99;
 ---------------------
 restarted optimzation
 ---------------------
 Symbolic Z-matrix:
 Charge =  0 Multiplicity = 1
 C                     3.45075   1.31951   1.19 
 H                     4.41477   1.50594   1.66553 
 H                     3.16423   2.2159    0.6173 
 C                     4.7928   -0.00209  -0.37223 
 H                     4.91777   0.77337  -1.1431 
 N                     3.55123   0.14391   0.35923 
 H                     2.71029   1.16152   1.97701 
 H                     4.8173   -0.97722  -0.86131 
 H                     5.6376    0.05425   0.31813 
 C                     2.41205  -0.35919  -0.22643 
 H                     2.5761   -1.19699  -0.89261 
 C                     1.12552   0.07181   0.00289 
 C                    -0.00288  -0.52638  -0.53633 
 H                     0.94455   0.92785   0.64177 
 O                     0.14171  -1.55211  -1.43298 
 C                    -1.37698  -0.02761  -0.3099 
 C                    -2.18476  -0.66791   0.71639 
 C                    -1.92274   0.99269  -1.0699 
 O                    -1.75187  -1.65433   1.34232 
 C                    -3.51456  -0.14242   0.95129 
 C                    -3.20954   1.45695  -0.82381 
 H                    -1.32481   1.44716  -1.85128 
 H                    -0.38675  -2.23953  -1.0236 
 H                    -4.09725  -0.60651   1.73834 
 C                    -4.00093   0.88503   0.19761 
 H                    -3.60995   2.27305  -1.41366 
 H                    -4.99896   1.27018   0.37419 
 

 GradGradGradGradGradGradGradGradGradGradGradGradGradGradGradGradGradGrad
 Berny optimization.
 Initialization pass.
                           ----------------------------
                           !    Initial Parameters    !
                           ! (Angstroms and Degrees)  !
 --------------------------                            --------------------------
 ! Name  Definition              Value          Derivative Info.                !
 --------------------------------------------------------------------------------
 ! R1    R(1,2)                  1.091          estimate D2E/DX2                !
 ! R2    R(1,3)                  1.1016         estimate D2E/DX2                !
 ! R3    R(1,6)                  1.443          estimate D2E/DX2                !
 ! R4    R(1,7)                  1.0921         estimate D2E/DX2                !
 ! R5    R(4,5)                  1.1005         estimate D2E/DX2                !
 ! R6    R(4,6)                  1.4484         estimate D2E/DX2                !
 ! R7    R(4,8)                  1.0912         estimate D2E/DX2                !
 ! R8    R(4,9)                  1.0925         estimate D2E/DX2                !
 ! R9    R(6,10)                 1.3762         estimate D2E/DX2                !
 ! R10   R(10,11)                1.0829         estimate D2E/DX2                !
 ! R11   R(10,12)                1.376          estimate D2E/DX2                !
 ! R12   R(12,13)                1.3863         estimate D2E/DX2                !
 ! R13   R(12,14)                1.0834         estimate D2E/DX2                !
 ! R14   R(13,15)                1.37           estimate D2E/DX2                !
 ! R15   R(13,16)                1.4792         estimate D2E/DX2                !
 ! R16   R(15,23)                0.9589         estimate D2E/DX2                !
 ! R17   R(16,17)                1.4546         estimate D2E/DX2                !
 ! R18   R(16,18)                1.3844         estimate D2E/DX2                !
 ! R19   R(17,19)                1.2459         estimate D2E/DX2                !
 ! R20   R(17,20)                1.449          estimate D2E/DX2                !
 ! R21   R(18,21)                1.3899         estimate D2E/DX2                !
 ! R22   R(18,22)                1.0838         estimate D2E/DX2                !
 ! R23   R(20,24)                1.0837         estimate D2E/DX2                !
 ! R24   R(20,25)                1.3639         estimate D2E/DX2                !
 ! R25   R(21,25)                1.413          estimate D2E/DX2                !
 ! R26   R(21,26)                1.0836         estimate D2E/DX2                !
 ! R27   R(25,27)                1.0842         estimate D2E/DX2                !
 ! A1    A(2,1,3)              108.5039         estimate D2E/DX2                !
 ! A2    A(2,1,6)              109.1854         estimate D2E/DX2                !
 ! A3    A(2,1,7)              108.0431         estimate D2E/DX2                !
 ! A4    A(3,1,6)              112.4404         estimate D2E/DX2                !
 ! A5    A(3,1,7)              108.4219         estimate D2E/DX2                !
 ! A6    A(6,1,7)              110.1358         estimate D2E/DX2                !
 ! A7    A(5,4,6)              112.3368         estimate D2E/DX2                !
 ! A8    A(5,4,8)              108.2511         estimate D2E/DX2                !
 ! A9    A(5,4,9)              108.5711         estimate D2E/DX2                !
 ! A10   A(6,4,8)              109.6139         estimate D2E/DX2                !
 ! A11   A(6,4,9)              109.7884         estimate D2E/DX2                !
 ! A12   A(8,4,9)              108.1775         estimate D2E/DX2                !
 ! A13   A(1,6,4)              115.6297         estimate D2E/DX2                !
 ! A14   A(1,6,10)             119.0253         estimate D2E/DX2                !
 ! A15   A(4,6,10)             117.246          estimate D2E/DX2                !
 ! A16   A(6,10,11)            114.7867         estimate D2E/DX2                !
 ! A17   A(6,10,12)            126.0518         estimate D2E/DX2                !
 ! A18   A(11,10,12)           119.1104         estimate D2E/DX2                !
 ! A19   A(10,12,13)           124.1278         estimate D2E/DX2                !
 ! A20   A(10,12,14)           120.1282         estimate D2E/DX2                !
 ! A21   A(13,12,14)           115.7438         estimate D2E/DX2                !
 ! A22   A(12,13,15)           119.4529         estimate D2E/DX2                !
 ! A23   A(12,13,16)           123.4406         estimate D2E/DX2                !
 ! A24   A(15,13,16)           116.7857         estimate D2E/DX2                !
 ! A25   A(13,15,23)           101.488          estimate D2E/DX2                !
 ! A26   A(13,16,17)           118.388          estimate D2E/DX2                !
 ! A27   A(13,16,18)           122.0515         estimate D2E/DX2                !
 ! A28   A(17,16,18)           119.5277         estimate D2E/DX2                !
 ! A29   A(16,17,19)           120.6665         estimate D2E/DX2                !
 ! A30   A(16,17,20)           117.6704         estimate D2E/DX2                !
 ! A31   A(19,17,20)           121.6386         estimate D2E/DX2                !
 ! A32   A(16,18,21)           120.9279         estimate D2E/DX2                !
 ! A33   A(16,18,22)           119.167          estimate D2E/DX2                !
 ! A34   A(21,18,22)           119.8899         estimate D2E/DX2                !
 ! A35   A(17,20,24)           117.1217         estimate D2E/DX2                !
 ! A36   A(17,20,25)           120.7221         estimate D2E/DX2                !
 ! A37   A(24,20,25)           122.154          estimate D2E/DX2                !
 ! A38   A(18,21,25)           120.7495         estimate D2E/DX2                !
 ! A39   A(18,21,26)           119.8197         estimate D2E/DX2                !
 ! A40   A(25,21,26)           119.4281         estimate D2E/DX2                !
 ! A41   A(20,25,21)           120.3059         estimate D2E/DX2                !
 ! A42   A(20,25,27)           120.3875         estimate D2E/DX2                !
 ! A43   A(21,25,27)           119.3065         estimate D2E/DX2                !
 ! D1    D(2,1,6,4)            -38.948          estimate D2E/DX2                !
 ! D2    D(2,1,6,10)           173.1742         estimate D2E/DX2                !
 ! D3    D(3,1,6,4)             81.5339         estimate D2E/DX2                !
 ! D4    D(3,1,6,10)           -66.344          estimate D2E/DX2                !
 ! D5    D(7,1,6,4)           -157.4294         estimate D2E/DX2                !
 ! D6    D(7,1,6,10)            54.6928         estimate D2E/DX2                !
 ! D7    D(5,4,6,1)            -66.894          estimate D2E/DX2                !
 ! D8    D(5,4,6,10)            81.5744         estimate D2E/DX2                !
 ! D9    D(8,4,6,1)            172.7173         estimate D2E/DX2                !
 ! D10   D(8,4,6,10)           -38.8143         estimate D2E/DX2                !
 ! D11   D(9,4,6,1)             54.0203         estimate D2E/DX2                !
 ! D12   D(9,4,6,10)          -157.5113         estimate D2E/DX2                !
 ! D13   D(1,6,10,11)          175.6988         estimate D2E/DX2                !
 ! D14   D(1,6,10,12)           -6.9435         estimate D2E/DX2                !
 ! D15   D(4,6,10,11)           28.3306         estimate D2E/DX2                !
 ! D16   D(4,6,10,12)         -154.3117         estimate D2E/DX2                !
 ! D17   D(6,10,12,13)        -175.1716         estimate D2E/DX2                !
 ! D18   D(6,10,12,14)           4.6639         estimate D2E/DX2                !
 ! D19   D(11,10,12,13)          2.0827         estimate D2E/DX2                !
 ! D20   D(11,10,12,14)       -178.0818         estimate D2E/DX2                !
 ! D21   D(10,12,13,15)         -4.9605         estimate D2E/DX2                !
 ! D22   D(10,12,13,16)       -178.2406         estimate D2E/DX2                !
 ! D23   D(14,12,13,15)        175.1975         estimate D2E/DX2                !
 ! D24   D(14,12,13,16)          1.9174         estimate D2E/DX2                !
 ! D25   D(12,13,15,23)        125.3708         estimate D2E/DX2                !
 ! D26   D(16,13,15,23)        -60.9089         estimate D2E/DX2                !
 ! D27   D(12,13,16,17)        -98.2651         estimate D2E/DX2                !
 ! D28   D(12,13,16,18)         83.8283         estimate D2E/DX2                !
 ! D29   D(15,13,16,17)         88.2889         estimate D2E/DX2                !
 ! D30   D(15,13,16,18)        -89.6177         estimate D2E/DX2                !
 ! D31   D(13,16,17,19)         -3.4881         estimate D2E/DX2                !
 ! D32   D(13,16,17,20)        178.2839         estimate D2E/DX2                !
 ! D33   D(18,16,17,19)        174.4729         estimate D2E/DX2                !
 ! D34   D(18,16,17,20)         -3.7552         estimate D2E/DX2                !
 ! D35   D(13,16,18,21)       -179.0261         estimate D2E/DX2                !
 ! D36   D(13,16,18,22)         -0.4453         estimate D2E/DX2                !
 ! D37   D(17,16,18,21)          3.0904         estimate D2E/DX2                !
 ! D38   D(17,16,18,22)       -178.3288         estimate D2E/DX2                !
 ! D39   D(16,17,20,24)       -178.1847         estimate D2E/DX2                !
 ! D40   D(16,17,20,25)          2.3522         estimate D2E/DX2                !
 ! D41   D(19,17,20,24)          3.6055         estimate D2E/DX2                !
 ! D42   D(19,17,20,25)       -175.8576         estimate D2E/DX2                !
 ! D43   D(16,18,21,25)         -0.91           estimate D2E/DX2                !
 ! D44   D(16,18,21,26)        178.4881         estimate D2E/DX2                !
 ! D45   D(22,18,21,25)       -179.4806         estimate D2E/DX2                !
 ! D46   D(22,18,21,26)         -0.0825         estimate D2E/DX2                !
 ! D47   D(17,20,25,21)         -0.2335         estimate D2E/DX2                !
 ! D48   D(17,20,25,27)        179.6397         estimate D2E/DX2                !
 ! D49   D(24,20,25,21)       -179.6691         estimate D2E/DX2                !
 ! D50   D(24,20,25,27)          0.2042         estimate D2E/DX2                !
 ! D51   D(18,21,25,20)         -0.5672         estimate D2E/DX2                !
 ! D52   D(18,21,25,27)        179.5582         estimate D2E/DX2                !
 ! D53   D(26,21,25,20)       -179.9676         estimate D2E/DX2                !
 ! D54   D(26,21,25,27)          0.1577         estimate D2E/DX2                !
 --------------------------------------------------------------------------------
 Trust Radius=3.00D-01 FncErr=1.00D-07 GrdErr=1.00D-06
 Number of steps in this run=    134 maximum allowed number of steps=    162.
 GradGradGradGradGradGradGradGradGradGradGradGradGradGradGradGradGradGrad

                          Input orientation:                          
 ---------------------------------------------------------------------
 Center     Atomic      Atomic             Coordinates (Angstroms)
 Number     Number       Type             X           Y           Z
 ---------------------------------------------------------------------
      1          6           0        3.450747    1.319511    1.189997
      2          1           0        4.414770    1.505942    1.665528
      3          1           0        3.164228    2.215901    0.617300
      4          6           0        4.792796   -0.002092   -0.372228
      5          1           0        4.917769    0.773374   -1.143099
      6          7           0        3.551229    0.143905    0.359234
      7          1           0        2.710289    1.161524    1.977011
      8          1           0        4.817297   -0.977215   -0.861306
      9          1           0        5.637597    0.054247    0.318127
     10          6           0        2.412047   -0.359188   -0.226433
     11          1           0        2.576103   -1.196994   -0.892612
     12          6           0        1.125518    0.071806    0.002885
     13          6           0       -0.002884   -0.526376   -0.536328
     14          1           0        0.944546    0.927852    0.641766
     15          8           0        0.141707   -1.552111   -1.432977
     16          6           0       -1.376977   -0.027608   -0.309901
     17          6           0       -2.184759   -0.667905    0.716394
     18          6           0       -1.922739    0.992686   -1.069898
     19          8           0       -1.751865   -1.654326    1.342317
     20          6           0       -3.514557   -0.142417    0.951286
     21          6           0       -3.209535    1.456953   -0.823814
     22          1           0       -1.324811    1.447155   -1.851283
     23          1           0       -0.386755   -2.239534   -1.023601
     24          1           0       -4.097253   -0.606510    1.738343
     25          6           0       -4.000929    0.885032    0.197611
     26          1           0       -3.609949    2.273053   -1.413658
     27          1           0       -4.998964    1.270179    0.374194
 ---------------------------------------------------------------------
                    Distance matrix (angstroms):
                    1          2          3          4          5
     1  C    0.000000
     2  H    1.090975   0.000000
     3  H    1.101631   1.779517   0.000000
     4  C    2.447096   2.563107   2.924191   0.000000
     5  H    2.809583   2.945853   2.873116   1.100549   0.000000
     6  N    1.443022   2.075392   2.123567   1.448392   2.126186
     7  H    1.092076   1.766607   1.779490   3.348098   3.841707
     8  H    3.369014   3.565528   3.887789   1.091175   1.775968
     9  H    2.672707   2.327706   3.298455   1.092453   1.780583
    10  C    2.429651   3.327030   2.812249   2.411792   2.898554
    11  H    3.381577   4.150981   3.778039   2.571443   3.070585
    12  C    2.893561   3.954783   3.021752   3.687153   4.023263
    13  C    4.279610   5.337991   4.345289   4.827044   5.125461
    14  H    2.595187   3.663978   2.566448   4.086809   4.358452
    15  O    5.106462   6.100122   5.247588   5.016012   5.320026
    16  C    5.231763   6.308600   5.149328   6.170141   6.399970
    17  C    5.994418   7.012863   6.077649   7.093284   7.482039
    18  C    5.838518   6.921706   5.497283   6.824569   6.844414
    19  O    5.994504   6.936797   6.298593   6.964347   7.520308
    20  C    7.121073   8.130280   7.090795   8.413293   8.736661
    21  C    6.959431   8.020552   6.578576   8.146781   8.162248
    22  H    5.663182   6.731583   5.180381   6.458563   6.318648
    23  H    5.682714   6.656925   5.928991   5.679629   6.101628
    24  H    7.809132   8.770535   7.870950   9.157118   9.564382
    25  C    7.530012   8.565296   7.299783   8.856710   9.019598
    26  H    7.585624   8.629366   7.072307   8.767382   8.662806
    27  H    8.489145   9.504815   8.221386   9.902241  10.044431
                    6          7          8          9         10
     6  N    0.000000
     7  H    2.088045   0.000000
     8  H    2.085559   4.131553   0.000000
     9  H    2.088698   3.542187   1.768578   0.000000
    10  C    1.376170   2.693822   2.563250   3.297218   0.000000
    11  H    2.077498   3.716900   2.252162   3.521965   1.082879
    12  C    2.452806   2.756113   3.934019   4.523112   1.376045
    13  C    3.725993   4.065364   4.852114   5.734304   2.440467
    14  H    2.736639   2.226057   4.570198   4.784627   2.136305
    15  O    4.208721   5.058601   4.745361   5.987617   2.834300
    16  C    4.976381   4.832157   6.290853   7.043108   3.804420
    17  C    5.804150   5.375636   7.184260   7.865709   4.702643
    18  C    5.720767   5.547712   7.025105   7.743769   4.618373
    19  O    5.685323   5.314383   6.961919   7.653257   4.634277
    20  C    7.096326   6.442133   8.567507   9.176137   6.046375
    21  C    6.987963   6.555625   8.387885   9.030136   5.937796
    22  H    5.510046   5.569511   6.677059   7.424396   4.457255
    23  H    4.806322   5.492044   5.357420   6.584412   3.464747
    24  H    7.807967   7.037438   9.293266   9.860067   6.803859
    25  C    7.590157   6.948608   9.074711   9.675015   6.546309
    26  H    7.678469   7.257930   9.049188   9.666400   6.678520
    27  H    8.624066   7.874859  10.145749  10.705983   7.611746
                   11         12         13         14         15
    11  H    0.000000
    12  C    2.125080   0.000000
    13  C    2.688464   1.386313   0.000000
    14  H    3.087275   1.083390   2.097691   0.000000
    15  O    2.518807   2.380481   1.370043   3.331565   0.000000
    16  C    4.163395   2.523925   1.479247   2.684780   2.427305
    17  C    5.053181   3.466151   2.519905   3.513483   3.288474
    18  C    5.006567   3.360172   2.505612   3.339958   3.296931
    19  O    4.892378   3.612886   2.803661   3.798559   3.361297
    20  C    6.450444   4.740849   3.833049   4.596181   4.586961
    21  C    6.365672   4.625446   3.781382   4.436695   4.544928
    22  H    4.809127   3.366547   2.715036   3.411004   3.364707
    23  H    3.143656   2.946682   1.822005   3.818133   0.958859
    24  H    7.197519   5.545202   4.684486   5.382981   5.377752
    25  C    6.984323   5.194200   4.302918   4.965564   5.075423
    26  H    7.111959   5.410798   4.649455   5.174723   5.357908
    27  H    8.066807   6.251660   5.386787   5.959370   6.136586
                   16         17         18         19         20
    16  C    0.000000
    17  C    1.454570   0.000000
    18  C    1.384360   2.452969   0.000000
    19  O    2.348739   1.245874   3.585338   0.000000
    20  C    2.484557   1.449025   2.812033   2.354964   0.000000
    21  C    2.413772   2.817344   1.389944   4.061648   2.408735
    22  H    2.133894   3.435979   1.083800   4.472208   3.895654
    23  H    2.526366   2.954728   3.578916   2.793485   4.252202
    24  H    3.454031   2.169282   3.895145   2.599154   1.083686
    25  C    2.824111   2.445245   2.436605   3.580081   1.363904
    26  H    3.390794   3.900964   2.145737   5.145112   3.381798
    27  H    3.907816   3.434097   3.409628   4.475896   2.128832
                   21         22         23         24         25
    21  C    0.000000
    22  H    2.146619   0.000000
    23  H    4.655322   3.893158   0.000000
    24  H    3.407429   4.978894   4.905395   0.000000
    25  C    1.413049   3.416951   4.931179   2.146586   0.000000
    26  H    1.083636   2.468902   5.559188   4.297029   2.162326
    27  H    2.161519   4.299240   5.961911   2.489166   1.084248
                   26         27
    26  H    0.000000
    27  H    2.476193   0.000000
 Stoichiometry    C11H13NO2
 Framework group  C1[X(C11H13NO2)]
 Deg. of freedom    75
 Full point group                 C1      NOp   1
 Largest Abelian subgroup         C1      NOp   1
 Largest concise Abelian subgroup C1      NOp   1
                         Standard orientation:                         
 ---------------------------------------------------------------------
 Center     Atomic      Atomic             Coordinates (Angstroms)
 Number     Number       Type             X           Y           Z
 ---------------------------------------------------------------------
      1          6           0       -3.448175   -1.294562    1.218006
      2          1           0       -4.411928   -1.470775    1.697960
      3          1           0       -3.161478   -2.203363    0.665308
      4          6           0       -4.791427   -0.008684   -0.372738
      5          1           0       -4.916354   -0.801188   -1.126090
      6          7           0       -3.549509   -0.137802    0.361297
      7          1           0       -2.707480   -1.118754    2.001008
      8          1           0       -4.816557    0.955289   -0.883411
      9          1           0       -5.635933   -0.049999    0.319040
     10          6           0       -2.410782    0.352618   -0.235890
     11          1           0       -2.575474    1.175301   -0.920505
     12          6           0       -1.123970   -0.072594    0.002457
     13          6           0        0.003953    0.513921   -0.550402
     14          1           0       -0.942364   -0.914114    0.660180
     15          8           0       -0.141449    1.519360   -1.469624
     16          6           0        1.378358    0.020926   -0.313469
     17          6           0        2.186254    0.684285    0.697981
     18          6           0        1.924280   -1.015808   -1.050764
     19          8           0        1.753163    1.684216    1.301944
     20          6           0        3.516379    0.164745    0.943989
     21          6           0        3.211380   -1.473912   -0.794914
     22          1           0        1.326250   -1.487837   -1.821590
     23          1           0        0.386865    2.215966   -1.075877
     24          1           0        4.099175    0.646515    1.720277
     25          6           0        4.002917   -0.879027    0.213198
     26          1           0        3.611929   -2.302775   -1.366589
     27          1           0        5.001193   -1.259706    0.397918
 ---------------------------------------------------------------------
 Rotational constants (GHZ):      1.5119695      0.3072417      0.2996838
 Standard basis: 6-311++G(d,p) (5D, 7F)
 There are   413 symmetry adapted cartesian basis functions of A   symmetry.
 There are   399 symmetry adapted basis functions of A   symmetry.
   399 basis functions,   621 primitive gaussians,   413 cartesian basis functions
    51 alpha electrons       51 beta electrons
       nuclear repulsion energy       833.3364094172 Hartrees.
 NAtoms=   27 NActive=   27 NUniq=   27 SFac= 1.00D+00 NAtFMM=   60 NAOKFM=F Big=F
 Integral buffers will be    131072 words long.
 Raffenetti 1 integral format.
 Two-electron integral symmetry is turned on.
 Nuclear repulsion after empirical dispersion term =      833.3208801538 Hartrees.
 ------------------------------------------------------------------------------
 Polarizable Continuum Model (PCM)
 =================================
 Model                : PCM (using non-symmetric T matrix).
 Atomic radii         : UFF (Universal Force Field).
 Polarization charges : Total charges.
 Charge compensation  : None.
 Solution method      : On-the-fly selection.
 Cavity type          : Scaled VdW (van der Waals Surface) (Alpha=1.100).
 Cavity algorithm     : GePol (No added spheres)
                        Default sphere list used, NSphG=   27.
                        Lebedev-Laikov grids with approx.  5.0 points / Ang**2.
                        Smoothing algorithm: Karplus/York (Gamma=1.0000).
                        Polarization charges: spherical gaussians, with
                                              point-specific exponents (IZeta= 3).
                        Self-potential: point-specific (ISelfS= 7).
                        Self-field    : sphere-specific E.n sum rule (ISelfD= 2).
 1st derivatives      : Analytical E(r).r(x)/FMM algorithm (CHGder, D1EAlg=3).
                        Cavity 1st derivative terms included.
 Solvent              : Dichloromethane, Eps=   8.930000 Eps(inf)=   2.028346
 ------------------------------------------------------------------------------
 One-electron integrals computed using PRISM.
 NBasis=   399 RedAO= T EigKep=  1.25D-06  NBF=   399
 NBsUse=   398 1.00D-06 EigRej=  5.21D-07 NBFU=   398
 ExpMin= 3.60D-02 ExpMax= 8.59D+03 ExpMxC= 1.30D+03 IAcc=3 IRadAn=         5 AccDes= 0.00D+00
 Harris functional with IExCor= 4639 and IRadAn=       5 diagonalized for initial guess.
 HarFok:  IExCor= 4639 AccDes= 0.00D+00 IRadAn=         5 IDoV= 1 UseB2=F ITyADJ=14
 ICtDFT=  3500011 ScaDFX=  1.000000  1.000000  1.000000  1.000000
 FoFCou: FMM=F IPFlag=           0 FMFlag=      100000 FMFlg1=           0
         NFxFlg=           0 DoJE=T BraDBF=F KetDBF=T FulRan=T
         wScrn=  0.000000 ICntrl=     500 IOpCl=  0 I1Cent=   200000004 NGrid=           0
         NMat0=    1 NMatS0=      1 NMatT0=    0 NMatD0=    1 NMtDS0=    0 NMtDT0=    0
 Petite list used in FoFCou.
 Requested convergence on RMS density matrix=1.00D-08 within 128 cycles.
 Requested convergence on MAX density matrix=1.00D-06.
 Requested convergence on             energy=1.00D-06.
 No special actions if energy rises.
 Inv3:  Mode=1 IEnd=    13661868.
 Iteration    1 A*A^-1 deviation from unit magnitude is 5.88D-15 for   2127.
 Iteration    1 A*A^-1 deviation from orthogonality  is 4.38D-15 for   2127   1269.
 Iteration    1 A^-1*A deviation from unit magnitude is 5.77D-15 for   2127.
 Iteration    1 A^-1*A deviation from orthogonality  is 1.54D-11 for   1637   1636.
 Error on total polarization charges =  0.01525
 SCF Done:  E(RwB97XD) =  -632.087286020     A.U. after   19 cycles
            NFock= 19  Conv=0.53D-08     -V/T= 2.0042
 DoSCS=F DFT=T ScalE2(SS,OS)=  1.000000  1.000000
 ExpMin= 3.60D-02 ExpMax= 8.59D+03 ExpMxC= 1.30D+03 IAcc=3 IRadAn=         5 AccDes= 0.00D+00
 HarFok:  IExCor=  205 AccDes= 0.00D+00 IRadAn=         5 IDoV=-2 UseB2=F ITyADJ=14
 ICtDFT= 12500011 ScaDFX=  1.000000  1.000000  1.000000  1.000000
 Range of M.O.s used for correlation:    15   398
 NBasis=   399 NAE=    51 NBE=    51 NFC=    14 NFV=     0
 NROrb=    384 NOA=    37 NOB=    37 NVA=   347 NVB=   347

 **** Warning!!: The largest alpha MO coefficient is  0.15304299D+03

 Would need an additional         18603000000 words for in-memory AO integral storage.
 NEqPCM:  Using equilibrium solvation (IEInf=0, Eps=   8.9300, EpsInf=   2.0283)
 Orbital symmetries:
       Occupied  (A) (A) (A) (A) (A) (A) (A) (A) (A) (A) (A) (A)
                 (A) (A) (A) (A) (A) (A) (A) (A) (A) (A) (A) (A)
                 (A) (A) (A) (A) (A) (A) (A) (A) (A) (A) (A) (A)
                 (A) (A) (A) (A) (A) (A) (A) (A) (A) (A) (A) (A)
                 (A) (A) (A)
       Virtual   (A) (A) (A) (A) (A) (A) (A) (A) (A) (A) (A) (A)
                 (A) (A) (A) (A) (A) (A) (A) (A) (A) (A) (A) (A)
                 (A) (A) (A) (A) (A) (A) (A) (A) (A) (A) (A) (A)
                 (A) (A) (A) (A) (A) (A) (A) (A) (A) (A) (A) (A)
                 (A) (A) (A) (A) (A) (A) (A) (A) (A) (A) (A) (A)
                 (A) (A) (A) (A) (A) (A) (A) (A) (A) (A) (A) (A)
                 (A) (A) (A) (A) (A) (A) (A) (A) (A) (A) (A) (A)
                 (A) (A) (A) (A) (A) (A) (A) (A) (A) (A) (A) (A)
                 (A) (A) (A) (A) (A) (A) (A) (A) (A) (A) (A) (A)
                 (A) (A) (A) (A) (A) (A) (A) (A) (A) (A) (A) (A)
                 (A) (A) (A) (A) (A) (A) (A) (A) (A) (A) (A) (A)
                 (A) (A) (A) (A) (A) (A) (A) (A) (A) (A) (A) (A)
                 (A) (A) (A) (A) (A) (A) (A) (A) (A) (A) (A) (A)
                 (A) (A) (A) (A) (A) (A) (A) (A) (A) (A) (A) (A)
                 (A) (A) (A) (A) (A) (A) (A) (A) (A) (A) (A) (A)
                 (A) (A) (A) (A) (A) (A) (A) (A) (A) (A) (A) (A)
                 (A) (A) (A) (A) (A) (A) (A) (A) (A) (A) (A) (A)
                 (A) (A) (A) (A) (A) (A) (A) (A) (A) (A) (A) (A)
                 (A) (A) (A) (A) (A) (A) (A) (A) (A) (A) (A) (A)
                 (A) (A) (A) (A) (A) (A) (A) (A) (A) (A) (A) (A)
                 (A) (A) (A) (A) (A) (A) (A) (A) (A) (A) (A) (A)
                 (A) (A) (A) (A) (A) (A) (A) (A) (A) (A) (A) (A)
                 (A) (A) (A) (A) (A) (A) (A) (A) (A) (A) (A) (A)
                 (A) (A) (A) (A) (A) (A) (A) (A) (A) (A) (A) (A)
                 (A) (A) (A) (A) (A) (A) (A) (A) (A) (A) (A) (A)
                 (A) (A) (A) (A) (A) (A) (A) (A) (A) (A) (A) (A)
                 (A) (A) (A) (A) (A) (A) (A) (A) (A) (A) (A) (A)
                 (A) (A) (A) (A) (A) (A) (A) (A) (A) (A) (A) (A)
                 (A) (A) (A) (A) (A) (A) (A) (A) (A) (A) (A)
     8 initial guesses have been made.
 Convergence on wavefunction:    0.000001000000000
 Iteration     1 Dimension     8 NMult     0 NNew      8
 CISAX will form     8 AO SS matrices at one time.
 Iteration     2 Dimension    12 NMult     8 NNew      4
 Iteration     3 Dimension    16 NMult    12 NNew      4
 Iteration     4 Dimension    20 NMult    16 NNew      4
 Iteration     5 Dimension    24 NMult    20 NNew      4
 Iteration     6 Dimension    28 NMult    24 NNew      4
 Iteration     7 Dimension    32 NMult    28 NNew      4
 Iteration     8 Dimension    36 NMult    32 NNew      4
 Iteration     9 Dimension    40 NMult    36 NNew      4
 Iteration    10 Dimension    44 NMult    40 NNew      4
 ***********************************************************************
 Excited states from <AA,BB:AA,BB> singles matrix:
 ***********************************************************************
 
 Ground to excited state transition densities written to RWF  633
 Ground to excited state transition electric dipole moments (Au):
       state          X           Y           Z        Dip. S.      Osc.
         1         0.0057     -0.0199      0.0187      0.0008      0.0000
 Ground to excited state transition velocity dipole moments (Au):
       state          X           Y           Z        Dip. S.      Osc.
         1        -0.0008      0.0019     -0.0042      0.0000      0.0002
 Ground to excited state transition magnetic dipole moments (Au):
       state          X           Y           Z
         1         0.0947      0.0139     -0.0374
 Ground to excited state transition velocity quadrupole moments (Au):
       state          XX          YY          ZZ          XY          XZ          YZ
         1        -0.0231      0.0002      0.0055      0.0060     -0.0107     -0.0022
 <0|del|b> * <b|rxdel|0> + <0|del|b> * <b|delr+rdel|0>
 Rotatory Strengths (R) in cgs (10**-40 erg-esu-cm/Gauss)
       state          XX          YY          ZZ    R(velocity)    E-M Angle
         1         1.0296      0.6049     -0.4261      0.4028       77.40
 1/2[<0|r|b>*<b|rxdel|0> + (<0|rxdel|b>*<b|r|0>)*]
 Rotatory Strengths (R) in cgs (10**-40 erg-esu-cm/Gauss)
       state          XX          YY          ZZ     R(length)
         1        -0.3794      0.1947      0.4951      0.1035
  1/2[<0|del|b>*<b|r|0> + (<0|r|b>*<b|del|0>)*] (Au)
       state          X           Y           Z        Dip. S.   Osc.(frdel)
         1         0.0000      0.0000     -0.0001      0.0001      0.0001

 Excitation energies and oscillator strengths:
 
 Excited State   1:      Singlet-A      1.6650 eV  744.63 nm  f=0.0000  <S**2>=0.000
      49 -> 52         0.11094
      51 -> 52         0.68750
 This state for optimization and/or second-order correction.
 Total Energy, E(TD-HF/TD-KS) =  -632.026097151    
 Copying the excited state density for this state as the 1-particle RhoCI density.
 SavETr:  write IOETrn=   770 NScale= 10 NData=  16 NLR=1 NState=    1 LETran=      28.
          IDoAtm=111111111111111111111111111
 NEqPCM:  Using equilibrium solvation (IEInf=0, Eps=   8.9300, EpsInf=   2.0283)
          Differentiating once with respect to electric field.
                with respect to dipole field.
          Differentiating once with respect to nuclear coordinates.
          There are     1 degrees of freedom in the 1st order CPHF.  IDoFFX=0 NUNeed=     1.
 LinEq1:  Iter=  0 NonCon=     1 RMS=6.84D-03 Max=1.47D-01 NDo=     1
 AX will form     1 AO Fock derivatives at one time.
 LinEq1:  Iter=  1 NonCon=     1 RMS=2.23D-03 Max=5.94D-02 NDo=     1
 LinEq1:  Iter=  2 NonCon=     1 RMS=1.84D-03 Max=1.04D-01 NDo=     1
 LinEq1:  Iter=  3 NonCon=     1 RMS=7.08D-04 Max=3.53D-02 NDo=     1
 LinEq1:  Iter=  4 NonCon=     1 RMS=3.15D-04 Max=8.14D-03 NDo=     1
 LinEq1:  Iter=  5 NonCon=     1 RMS=1.28D-04 Max=4.03D-03 NDo=     1
 LinEq1:  Iter=  6 NonCon=     1 RMS=6.60D-05 Max=2.72D-03 NDo=     1
 LinEq1:  Iter=  7 NonCon=     1 RMS=2.91D-05 Max=1.72D-03 NDo=     1
 LinEq1:  Iter=  8 NonCon=     1 RMS=1.61D-05 Max=9.98D-04 NDo=     1
 LinEq1:  Iter=  9 NonCon=     1 RMS=9.07D-06 Max=5.27D-04 NDo=     1
 LinEq1:  Iter= 10 NonCon=     1 RMS=3.64D-06 Max=1.39D-04 NDo=     1
 LinEq1:  Iter= 11 NonCon=     1 RMS=1.91D-06 Max=6.20D-05 NDo=     1
 LinEq1:  Iter= 12 NonCon=     1 RMS=7.51D-07 Max=1.56D-05 NDo=     1
 LinEq1:  Iter= 13 NonCon=     1 RMS=3.85D-07 Max=1.26D-05 NDo=     1
 LinEq1:  Iter= 14 NonCon=     1 RMS=1.93D-07 Max=4.23D-06 NDo=     1
 LinEq1:  Iter= 15 NonCon=     1 RMS=1.08D-07 Max=5.37D-06 NDo=     1
 LinEq1:  Iter= 16 NonCon=     1 RMS=4.63D-08 Max=1.09D-06 NDo=     1
 LinEq1:  Iter= 17 NonCon=     1 RMS=2.24D-08 Max=6.52D-07 NDo=     1
 LinEq1:  Iter= 18 NonCon=     1 RMS=1.17D-08 Max=2.94D-07 NDo=     1
 LinEq1:  Iter= 19 NonCon=     1 RMS=4.43D-09 Max=1.17D-07 NDo=     1
 LinEq1:  Iter= 20 NonCon=     1 RMS=2.43D-09 Max=6.93D-08 NDo=     1
 LinEq1:  Iter= 21 NonCon=     1 RMS=8.87D-10 Max=2.27D-08 NDo=     1
 LinEq1:  Iter= 22 NonCon=     1 RMS=2.50D-10 Max=4.88D-09 NDo=     1
 LinEq1:  Iter= 23 NonCon=     1 RMS=1.14D-10 Max=3.09D-09 NDo=     1
 LinEq1:  Iter= 24 NonCon=     0 RMS=4.04D-11 Max=8.66D-10 NDo=     1
 Linear equations converged to 1.000D-10 1.000D-09 after    24 iterations.
 End of Minotr F.D. properties file   721 does not exist.
 End of Minotr F.D. properties file   722 does not exist.
 End of Minotr F.D. properties file   788 does not exist.

 **********************************************************************

            Population analysis using the SCF density.

 **********************************************************************

 Orbital symmetries:
       Occupied  (A) (A) (A) (A) (A) (A) (A) (A) (A) (A) (A) (A)
                 (A) (A) (A) (A) (A) (A) (A) (A) (A) (A) (A) (A)
                 (A) (A) (A) (A) (A) (A) (A) (A) (A) (A) (A) (A)
                 (A) (A) (A) (A) (A) (A) (A) (A) (A) (A) (A) (A)
                 (A) (A) (A)
       Virtual   (A) (A) (A) (A) (A) (A) (A) (A) (A) (A) (A) (A)
                 (A) (A) (A) (A) (A) (A) (A) (A) (A) (A) (A) (A)
                 (A) (A) (A) (A) (A) (A) (A) (A) (A) (A) (A) (A)
                 (A) (A) (A) (A) (A) (A) (A) (A) (A) (A) (A) (A)
                 (A) (A) (A) (A) (A) (A) (A) (A) (A) (A) (A) (A)
                 (A) (A) (A) (A) (A) (A) (A) (A) (A) (A) (A) (A)
                 (A) (A) (A) (A) (A) (A) (A) (A) (A) (A) (A) (A)
                 (A) (A) (A) (A) (A) (A) (A) (A) (A) (A) (A) (A)
                 (A) (A) (A) (A) (A) (A) (A) (A) (A) (A) (A) (A)
                 (A) (A) (A) (A) (A) (A) (A) (A) (A) (A) (A) (A)
                 (A) (A) (A) (A) (A) (A) (A) (A) (A) (A) (A) (A)
                 (A) (A) (A) (A) (A) (A) (A) (A) (A) (A) (A) (A)
                 (A) (A) (A) (A) (A) (A) (A) (A) (A) (A) (A) (A)
                 (A) (A) (A) (A) (A) (A) (A) (A) (A) (A) (A) (A)
                 (A) (A) (A) (A) (A) (A) (A) (A) (A) (A) (A) (A)
                 (A) (A) (A) (A) (A) (A) (A) (A) (A) (A) (A) (A)
                 (A) (A) (A) (A) (A) (A) (A) (A) (A) (A) (A) (A)
                 (A) (A) (A) (A) (A) (A) (A) (A) (A) (A) (A) (A)
                 (A) (A) (A) (A) (A) (A) (A) (A) (A) (A) (A) (A)
                 (A) (A) (A) (A) (A) (A) (A) (A) (A) (A) (A) (A)
                 (A) (A) (A) (A) (A) (A) (A) (A) (A) (A) (A) (A)
                 (A) (A) (A) (A) (A) (A) (A) (A) (A) (A) (A) (A)
                 (A) (A) (A) (A) (A) (A) (A) (A) (A) (A) (A) (A)
                 (A) (A) (A) (A) (A) (A) (A) (A) (A) (A) (A) (A)
                 (A) (A) (A) (A) (A) (A) (A) (A) (A) (A) (A) (A)
                 (A) (A) (A) (A) (A) (A) (A) (A) (A) (A) (A) (A)
                 (A) (A) (A) (A) (A) (A) (A) (A) (A) (A) (A) (A)
                 (A) (A) (A) (A) (A) (A) (A) (A) (A) (A) (A) (A)
                 (A) (A) (A) (A) (A) (A) (A) (A) (A) (A) (A)
 The electronic state is 1-A.
 Alpha  occ. eigenvalues --  -19.31167 -19.16800 -14.53222 -10.42375 -10.39974
 Alpha  occ. eigenvalues --  -10.33911 -10.33665 -10.32794 -10.31927 -10.28667
 Alpha  occ. eigenvalues --  -10.27730 -10.27614 -10.26035 -10.25694  -1.20529
 Alpha  occ. eigenvalues --   -1.11205  -1.08463  -0.94727  -0.92762  -0.86836
 Alpha  occ. eigenvalues --   -0.85819  -0.82676  -0.79812  -0.74611  -0.69897
 Alpha  occ. eigenvalues --   -0.69261  -0.66790  -0.63897  -0.63530  -0.60303
 Alpha  occ. eigenvalues --   -0.59473  -0.57454  -0.56347  -0.54938  -0.53262
 Alpha  occ. eigenvalues --   -0.51477  -0.51294  -0.51031  -0.50176  -0.48857
 Alpha  occ. eigenvalues --   -0.47876  -0.47034  -0.45551  -0.44608  -0.42911
 Alpha  occ. eigenvalues --   -0.41963  -0.39533  -0.35277  -0.32893  -0.30227
 Alpha  occ. eigenvalues --   -0.24768
 Alpha virt. eigenvalues --   -0.05398   0.03686   0.04772   0.05312   0.05675
 Alpha virt. eigenvalues --    0.05738   0.06263   0.06815   0.07552   0.07779
 Alpha virt. eigenvalues --    0.08259   0.08633   0.08956   0.09238   0.09702
 Alpha virt. eigenvalues --    0.10304   0.10887   0.12023   0.12755   0.12815
 Alpha virt. eigenvalues --    0.13608   0.14319   0.14362   0.14615   0.15335
 Alpha virt. eigenvalues --    0.15993   0.16336   0.16729   0.17038   0.17225
 Alpha virt. eigenvalues --    0.17773   0.18041   0.18333   0.18526   0.18606
 Alpha virt. eigenvalues --    0.18934   0.19438   0.19568   0.19985   0.20494
 Alpha virt. eigenvalues --    0.20664   0.21344   0.21737   0.22078   0.22259
 Alpha virt. eigenvalues --    0.22619   0.23184   0.23632   0.23904   0.24653
 Alpha virt. eigenvalues --    0.24919   0.25591   0.26078   0.26516   0.26717
 Alpha virt. eigenvalues --    0.27502   0.28225   0.28829   0.29200   0.29500
 Alpha virt. eigenvalues --    0.30057   0.30398   0.30636   0.31077   0.31513
 Alpha virt. eigenvalues --    0.31931   0.32230   0.32755   0.33219   0.33988
 Alpha virt. eigenvalues --    0.34100   0.34816   0.34979   0.35358   0.35913
 Alpha virt. eigenvalues --    0.36812   0.36957   0.37028   0.38034   0.38682
 Alpha virt. eigenvalues --    0.39141   0.39845   0.39916   0.40542   0.41698
 Alpha virt. eigenvalues --    0.42218   0.42686   0.43571   0.44555   0.45333
 Alpha virt. eigenvalues --    0.46046   0.46928   0.48173   0.48896   0.49293
 Alpha virt. eigenvalues --    0.50082   0.51381   0.52658   0.55268   0.55637
 Alpha virt. eigenvalues --    0.58410   0.60066   0.60592   0.62069   0.63092
 Alpha virt. eigenvalues --    0.63977   0.64973   0.65376   0.65550   0.65918
 Alpha virt. eigenvalues --    0.66618   0.67477   0.68365   0.69475   0.70047
 Alpha virt. eigenvalues --    0.70907   0.71122   0.71492   0.72169   0.72893
 Alpha virt. eigenvalues --    0.73450   0.74050   0.75133   0.75590   0.77299
 Alpha virt. eigenvalues --    0.77657   0.77852   0.78176   0.79433   0.80323
 Alpha virt. eigenvalues --    0.81199   0.82256   0.83075   0.84185   0.84609
 Alpha virt. eigenvalues --    0.85700   0.87615   0.88366   0.91116   0.91844
 Alpha virt. eigenvalues --    0.93533   0.94125   0.94764   0.96038   0.96153
 Alpha virt. eigenvalues --    0.97026   0.97422   0.99094   0.99234   0.99754
 Alpha virt. eigenvalues --    1.02743   1.03460   1.04132   1.05512   1.07494
 Alpha virt. eigenvalues --    1.09418   1.10815   1.11130   1.12675   1.13700
 Alpha virt. eigenvalues --    1.14418   1.15649   1.18507   1.20252   1.21168
 Alpha virt. eigenvalues --    1.21529   1.24719   1.26310   1.28535   1.31247
 Alpha virt. eigenvalues --    1.31344   1.32596   1.34442   1.37274   1.37758
 Alpha virt. eigenvalues --    1.40087   1.40868   1.43796   1.45605   1.49457
 Alpha virt. eigenvalues --    1.50726   1.52939   1.53620   1.56631   1.57145
 Alpha virt. eigenvalues --    1.58304   1.59710   1.60183   1.61321   1.62295
 Alpha virt. eigenvalues --    1.63711   1.64186   1.64852   1.66330   1.66889
 Alpha virt. eigenvalues --    1.67738   1.69400   1.69972   1.71409   1.73337
 Alpha virt. eigenvalues --    1.74385   1.75223   1.75911   1.76768   1.77752
 Alpha virt. eigenvalues --    1.79436   1.79781   1.80878   1.83526   1.84984
 Alpha virt. eigenvalues --    1.85916   1.86823   1.87755   1.89488   1.90427
 Alpha virt. eigenvalues --    1.92117   1.92987   1.96350   1.98744   1.99785
 Alpha virt. eigenvalues --    2.02427   2.03126   2.03753   2.05423   2.06113
 Alpha virt. eigenvalues --    2.07536   2.08300   2.09810   2.11984   2.13503
 Alpha virt. eigenvalues --    2.14033   2.15324   2.18141   2.18514   2.19157
 Alpha virt. eigenvalues --    2.20368   2.22561   2.22908   2.26229   2.29937
 Alpha virt. eigenvalues --    2.33009   2.35608   2.37948   2.39977   2.41514
 Alpha virt. eigenvalues --    2.43636   2.48924   2.51286   2.51671   2.53636
 Alpha virt. eigenvalues --    2.56686   2.58041   2.58805   2.59066   2.60433
 Alpha virt. eigenvalues --    2.62827   2.66003   2.67545   2.69034   2.70258
 Alpha virt. eigenvalues --    2.71525   2.72468   2.74203   2.77378   2.78240
 Alpha virt. eigenvalues --    2.80535   2.80742   2.81947   2.82961   2.84207
 Alpha virt. eigenvalues --    2.85513   2.87362   2.88898   2.89820   2.90120
 Alpha virt. eigenvalues --    2.91731   2.93129   2.95204   2.95811   2.96326
 Alpha virt. eigenvalues --    2.99123   3.01490   3.03379   3.04021   3.06877
 Alpha virt. eigenvalues --    3.07907   3.09276   3.09849   3.12830   3.17604
 Alpha virt. eigenvalues --    3.19572   3.22902   3.25262   3.26381   3.33233
 Alpha virt. eigenvalues --    3.38585   3.38956   3.43114   3.47821   3.48596
 Alpha virt. eigenvalues --    3.51041   3.55871   3.60956   3.62475   3.64833
 Alpha virt. eigenvalues --    3.65908   3.67861   3.73970   3.77374   3.82099
 Alpha virt. eigenvalues --    3.83570   3.86422   3.89795   3.90550   3.90880
 Alpha virt. eigenvalues --    3.97154   4.05464   4.12603   4.15545   4.17671
 Alpha virt. eigenvalues --    4.28449   4.29982   4.33736   4.48124   4.93181
 Alpha virt. eigenvalues --    4.95634   5.08985   5.20681   5.25802   5.41117
 Alpha virt. eigenvalues --    5.54592   5.77475   5.92533  23.74186  23.87569
 Alpha virt. eigenvalues --   24.01995  24.03637  24.06282  24.06409  24.09552
 Alpha virt. eigenvalues --   24.17860  24.24650  24.29197  24.35651  35.62610
 Alpha virt. eigenvalues --   50.04511  50.23654
          Condensed to atoms (all electrons):
               1          2          3          4          5          6
     1  C    5.403288   0.373601   0.423472  -0.147216   0.014614   0.275694
     2  H    0.373601   0.460541  -0.018852   0.000875  -0.003225  -0.037054
     3  H    0.423472  -0.018852   0.469286  -0.019268   0.005711  -0.042914
     4  C   -0.147216   0.000875  -0.019268   5.320696   0.411944   0.237405
     5  H    0.014614  -0.003225   0.005711   0.411944   0.505351  -0.021548
     6  N    0.275694  -0.037054  -0.042914   0.237405  -0.021548   6.585015
     7  H    0.389978  -0.019480  -0.039686   0.015613  -0.000408  -0.027415
     8  H    0.003406   0.002695  -0.001911   0.386294  -0.038306  -0.069766
     9  H   -0.025294   0.003375   0.001616   0.403700  -0.051226  -0.039678
    10  C   -0.171424   0.018820   0.010444  -0.189265  -0.061177   0.134011
    11  H    0.013701  -0.000424  -0.001055  -0.008899   0.006973  -0.042553
    12  C    0.168515   0.007107  -0.004078   0.015867   0.014835  -0.065697
    13  C   -0.141822  -0.000828  -0.004022  -0.042833  -0.003893  -0.022061
    14  H    0.013419   0.000912  -0.002728   0.006769   0.001609  -0.022458
    15  O   -0.001211   0.000065   0.000115  -0.005528   0.000073  -0.001281
    16  C   -0.108445  -0.001972  -0.005255  -0.005339  -0.001138  -0.026983
    17  C   -0.010253  -0.000136  -0.000879  -0.013039   0.000867  -0.011472
    18  C    0.013426   0.000620  -0.001561   0.013388  -0.001619   0.016646
    19  O    0.001360   0.000202  -0.000133  -0.000077  -0.000011   0.000695
    20  C    0.000501  -0.000072  -0.000484   0.000854   0.000028  -0.000263
    21  C    0.005719   0.000428   0.000286   0.001214  -0.000447   0.001277
    22  H   -0.000277   0.000099  -0.000917  -0.000349  -0.000110   0.000211
    23  H   -0.000720  -0.000068  -0.000072  -0.000192  -0.000024  -0.000583
    24  H   -0.000002   0.000008  -0.000010   0.000005  -0.000001   0.000042
    25  C   -0.000682  -0.000099   0.000075  -0.000274   0.000030  -0.000565
    26  H   -0.000121  -0.000002   0.000020   0.000009  -0.000002   0.000010
    27  H   -0.000020   0.000000   0.000001  -0.000001   0.000001  -0.000011
               7          8          9         10         11         12
     1  C    0.389978   0.003406  -0.025294  -0.171424   0.013701   0.168515
     2  H   -0.019480   0.002695   0.003375   0.018820  -0.000424   0.007107
     3  H   -0.039686  -0.001911   0.001616   0.010444  -0.001055  -0.004078
     4  C    0.015613   0.386294   0.403700  -0.189265  -0.008899   0.015867
     5  H   -0.000408  -0.038306  -0.051226  -0.061177   0.006973   0.014835
     6  N   -0.027415  -0.069766  -0.039678   0.134011  -0.042553  -0.065697
     7  H    0.502818  -0.002193  -0.000101   0.017950   0.000033  -0.029844
     8  H   -0.002193   0.507843  -0.012738   0.028925  -0.009063   0.009877
     9  H   -0.000101  -0.012738   0.513573   0.015644  -0.001715   0.002939
    10  C    0.017950   0.028925   0.015644   7.870495   0.425831  -0.764838
    11  H    0.000033  -0.009063  -0.001715   0.425831   0.422353   0.050553
    12  C   -0.029844   0.009877   0.002939  -0.764838   0.050553  10.200916
    13  C   -0.008714   0.009973  -0.001030  -0.914415  -0.093769  -0.755013
    14  H   -0.007407  -0.000785  -0.001324  -0.020310   0.005008   0.421691
    15  O    0.000101   0.000744  -0.000096  -0.026551   0.003457  -0.494634
    16  C   -0.000135   0.004924  -0.000533   0.081421  -0.031121  -3.517597
    17  C   -0.003583  -0.001953  -0.000934  -0.234235   0.006211  -0.192766
    18  C    0.005346   0.003868   0.000975  -0.089869  -0.024833   0.899551
    19  O   -0.000144  -0.000077  -0.000013   0.002289   0.002331  -0.001273
    20  C   -0.000957  -0.000629   0.000066   0.067960   0.009271  -0.044682
    21  C    0.003210   0.000317   0.000162   0.154213  -0.001605   0.244298
    22  H    0.000230   0.000265  -0.000019  -0.021658  -0.000724  -0.030670
    23  H    0.000290   0.000218  -0.000033  -0.011431  -0.003893   0.044382
    24  H    0.000015  -0.000002   0.000001   0.000364   0.000088  -0.006464
    25  C   -0.000513   0.000145  -0.000048  -0.041929  -0.003210   0.081972
    26  H    0.000039  -0.000008   0.000003   0.001410   0.000050  -0.006734
    27  H   -0.000012   0.000001  -0.000001   0.000425  -0.000014  -0.002378
              13         14         15         16         17         18
     1  C   -0.141822   0.013419  -0.001211  -0.108445  -0.010253   0.013426
     2  H   -0.000828   0.000912   0.000065  -0.001972  -0.000136   0.000620
     3  H   -0.004022  -0.002728   0.000115  -0.005255  -0.000879  -0.001561
     4  C   -0.042833   0.006769  -0.005528  -0.005339  -0.013039   0.013388
     5  H   -0.003893   0.001609   0.000073  -0.001138   0.000867  -0.001619
     6  N   -0.022061  -0.022458  -0.001281  -0.026983  -0.011472   0.016646
     7  H   -0.008714  -0.007407   0.000101  -0.000135  -0.003583   0.005346
     8  H    0.009973  -0.000785   0.000744   0.004924  -0.001953   0.003868
     9  H   -0.001030  -0.001324  -0.000096  -0.000533  -0.000934   0.000975
    10  C   -0.914415  -0.020310  -0.026551   0.081421  -0.234235  -0.089869
    11  H   -0.093769   0.005008   0.003457  -0.031121   0.006211  -0.024833
    12  C   -0.755013   0.421691  -0.494634  -3.517597  -0.192766   0.899551
    13  C   10.276402  -0.028341   0.521024  -0.090502  -1.765755  -1.600589
    14  H   -0.028341   0.451728  -0.002332  -0.023642  -0.028486  -0.031471
    15  O    0.521024  -0.002332   7.795907   0.305535   0.016865  -0.127917
    16  C   -0.090502  -0.023642   0.305535  14.063948  -0.908339  -2.302677
    17  C   -1.765755  -0.028486   0.016865  -0.908339  14.612940  -1.987465
    18  C   -1.600589  -0.031471  -0.127917  -2.302677  -1.987465  11.774753
    19  O    0.210052   0.001569  -0.013803  -0.136445   0.144625  -0.035502
    20  C    0.771292   0.036056  -0.008781  -0.890820  -3.328697  -0.365810
    21  C    0.644295  -0.024297  -0.049345  -0.638048  -1.855013  -0.533391
    22  H   -0.031694  -0.000625   0.000253   0.032661   0.075087   0.379889
    23  H    0.083352  -0.000450   0.253090  -0.048574  -0.075073   0.040565
    24  H   -0.003148   0.000039  -0.000215   0.001492  -0.133054   0.023423
    25  C   -0.567371  -0.006428   0.008953  -0.757625   2.114971   0.144798
    26  H    0.014333  -0.000461  -0.000091   0.055423  -0.035019  -0.103593
    27  H   -0.003837  -0.000101   0.000127   0.045996   0.034734  -0.042258
              19         20         21         22         23         24
     1  C    0.001360   0.000501   0.005719  -0.000277  -0.000720  -0.000002
     2  H    0.000202  -0.000072   0.000428   0.000099  -0.000068   0.000008
     3  H   -0.000133  -0.000484   0.000286  -0.000917  -0.000072  -0.000010
     4  C   -0.000077   0.000854   0.001214  -0.000349  -0.000192   0.000005
     5  H   -0.000011   0.000028  -0.000447  -0.000110  -0.000024  -0.000001
     6  N    0.000695  -0.000263   0.001277   0.000211  -0.000583   0.000042
     7  H   -0.000144  -0.000957   0.003210   0.000230   0.000290   0.000015
     8  H   -0.000077  -0.000629   0.000317   0.000265   0.000218  -0.000002
     9  H   -0.000013   0.000066   0.000162  -0.000019  -0.000033   0.000001
    10  C    0.002289   0.067960   0.154213  -0.021658  -0.011431   0.000364
    11  H    0.002331   0.009271  -0.001605  -0.000724  -0.003893   0.000088
    12  C   -0.001273  -0.044682   0.244298  -0.030670   0.044382  -0.006464
    13  C    0.210052   0.771292   0.644295  -0.031694   0.083352  -0.003148
    14  H    0.001569   0.036056  -0.024297  -0.000625  -0.000450   0.000039
    15  O   -0.013803  -0.008781  -0.049345   0.000253   0.253090  -0.000215
    16  C   -0.136445  -0.890820  -0.638048   0.032661  -0.048574   0.001492
    17  C    0.144625  -3.328697  -1.855013   0.075087  -0.075073  -0.133054
    18  C   -0.035502  -0.365810  -0.533391   0.379889   0.040565   0.023423
    19  O    8.520438  -0.098855   0.019954  -0.002458  -0.004625  -0.008161
    20  C   -0.098855  10.592224   1.113044  -0.027732  -0.021129   0.510355
    21  C    0.019954   1.113044   7.661943  -0.104160   0.011351   0.011836
    22  H   -0.002458  -0.027732  -0.104160   0.475444   0.000027   0.000623
    23  H   -0.004625  -0.021129   0.011351   0.000027   0.390920  -0.000569
    24  H   -0.008161   0.510355   0.011836   0.000623  -0.000569   0.479072
    25  C   -0.033229  -2.220216  -0.484184   0.025233   0.002360  -0.081848
    26  H    0.000311   0.050630   0.453081  -0.008327  -0.000117   0.000621
    27  H    0.000712  -0.056863  -0.014932  -0.000382   0.000076  -0.008388
              25         26         27
     1  C   -0.000682  -0.000121  -0.000020
     2  H   -0.000099  -0.000002   0.000000
     3  H    0.000075   0.000020   0.000001
     4  C   -0.000274   0.000009  -0.000001
     5  H    0.000030  -0.000002   0.000001
     6  N   -0.000565   0.000010  -0.000011
     7  H   -0.000513   0.000039  -0.000012
     8  H    0.000145  -0.000008   0.000001
     9  H   -0.000048   0.000003  -0.000001
    10  C   -0.041929   0.001410   0.000425
    11  H   -0.003210   0.000050  -0.000014
    12  C    0.081972  -0.006734  -0.002378
    13  C   -0.567371   0.014333  -0.003837
    14  H   -0.006428  -0.000461  -0.000101
    15  O    0.008953  -0.000091   0.000127
    16  C   -0.757625   0.055423   0.045996
    17  C    2.114971  -0.035019   0.034734
    18  C    0.144798  -0.103593  -0.042258
    19  O   -0.033229   0.000311   0.000712
    20  C   -2.220216   0.050630  -0.056863
    21  C   -0.484184   0.453081  -0.014932
    22  H    0.025233  -0.008327  -0.000382
    23  H    0.002360  -0.000117   0.000076
    24  H   -0.081848   0.000621  -0.008388
    25  C    7.818146  -0.091004   0.369913
    26  H   -0.091004   0.476888  -0.003862
    27  H    0.369913  -0.003862   0.466277
 Mulliken charges:
               1
     1  C   -0.493205
     2  H    0.212864
     3  H    0.232801
     4  C   -0.382352
     5  H    0.221100
     6  N    0.181294
     7  H    0.204968
     8  H    0.177936
     9  H    0.192725
    10  C   -0.283099
    11  H    0.277020
    12  C   -0.245832
    13  C   -0.451085
    14  H    0.262847
    15  O   -0.174524
    16  C    0.903791
    17  C   -0.420148
    18  C   -0.068693
    19  O   -0.569734
    20  C   -0.086291
    21  C   -0.621207
    22  H    0.240079
    23  H    0.340922
    24  H    0.213881
    25  C   -0.277372
    26  H    0.196514
    27  H    0.214799
 Sum of Mulliken charges =   0.00000
 Mulliken charges with hydrogens summed into heavy atoms:
               1
     1  C    0.157428
     4  C    0.209410
     6  N    0.181294
    10  C   -0.006079
    12  C    0.017015
    13  C   -0.451085
    15  O    0.166399
    16  C    0.903791
    17  C   -0.420148
    18  C    0.171386
    19  O   -0.569734
    20  C    0.127590
    21  C   -0.424693
    25  C   -0.062573
 Electronic spatial extent (au):  <R**2>=           3848.6023
 Charge=              0.0000 electrons
 Dipole moment (field-independent basis, Debye):
    X=            -16.2267    Y=             -3.9622    Z=             -2.9354  Tot=             16.9594
 Quadrupole moment (field-independent basis, Debye-Ang):
   XX=            -55.7123   YY=            -86.0136   ZZ=            -89.2503
   XY=             -1.7912   XZ=             -5.3810   YZ=             -9.0597
 Traceless Quadrupole moment (field-independent basis, Debye-Ang):
   XX=             21.2797   YY=             -9.0215   ZZ=            -12.2582
   XY=             -1.7912   XZ=             -5.3810   YZ=             -9.0597
 Octapole moment (field-independent basis, Debye-Ang**2):
  XXX=           -235.0588  YYY=              4.3911  ZZZ=             -3.2325  XYY=            -37.4874
  XXY=            -27.9073  XXZ=              1.4870  XZZ=            -34.7504  YZZ=            -14.6059
  YYZ=            -20.8387  XYZ=              0.6396
 Hexadecapole moment (field-independent basis, Debye-Ang**3):
 XXXX=          -3332.9704 YYYY=           -583.2011 ZZZZ=           -502.4517 XXXY=             12.7174
 XXXZ=             37.7162 YYYX=              5.3553 YYYZ=            -49.8942 ZZZX=            -20.1848
 ZZZY=            -21.5880 XXYY=           -781.8775 XXZZ=           -760.4587 YYZZ=           -188.7790
 XXYZ=            -48.3076 YYXZ=            -43.4497 ZZXY=              3.8268
 N-N= 8.333208801538D+02 E-N=-3.140379161026D+03  KE= 6.294346023628D+02
 D1PCM: PCM CHGder 1st derivatives, ID1Alg=3 FixD1E=F DoIter=F DoCFld=F I1PDM=6.
 Calling FoFJK, ICntrl=  10005127 FMM=F ISym2X=0 I1Cent= 0 IOpClX= 0 NMat=1 NMatS=1 NMatT=0.
 ***** Axes restored to original set *****
 -------------------------------------------------------------------
 Center     Atomic                   Forces (Hartrees/Bohr)
 Number     Number              X              Y              Z
 -------------------------------------------------------------------
      1        6          -0.000478791    0.002161906    0.000879098
      2        1          -0.000253164   -0.000112410   -0.000265853
      3        1           0.000130578   -0.000698392    0.000382080
      4        6           0.002336136   -0.000369970   -0.001871213
      5        1          -0.000121884   -0.000495618    0.000925994
      6        7          -0.002967941   -0.002081630   -0.001364630
      7        1          -0.000133443    0.000214963    0.000112554
      8        1           0.000090654   -0.000003168   -0.000042803
      9        1          -0.000334983    0.000074274   -0.000179858
     10        6          -0.005004671    0.003524836    0.003566026
     11        1           0.000483991    0.000097352   -0.000466474
     12        6           0.014418231    0.005848098    0.003054342
     13        6          -0.012591597    0.013565057   -0.000761375
     14        1           0.000632271    0.000491585    0.000775820
     15        8          -0.005010624   -0.007009982    0.006076055
     16        6           0.013485286   -0.007221805   -0.000424521
     17        6          -0.003537716   -0.000684895   -0.001162442
     18        6          -0.007134740    0.009858494   -0.002006025
     19        8           0.002208141   -0.002230108    0.002176371
     20        6          -0.001288237    0.002142003   -0.000688016
     21        6           0.007978542    0.000019426   -0.004055268
     22        1          -0.000211927    0.000249337   -0.000140610
     23        1          -0.001320573   -0.012577934   -0.009234621
     24        1          -0.000596148    0.000165635   -0.000291425
     25        6          -0.001170807   -0.004121062    0.005213104
     26        1           0.000072351   -0.000531604   -0.000205426
     27        1           0.000321065   -0.000274388   -0.000000883
 -------------------------------------------------------------------
 Cartesian Forces:  Max     0.014418231 RMS     0.004421400

 GradGradGradGradGradGradGradGradGradGradGradGradGradGradGradGradGradGrad
 Berny optimization.
 FormGI is forming the generalized inverse of G from B-inverse, IUseBI=4.
 Internal  Forces:  Max     0.026180176 RMS     0.003535867
 Search for a local minimum.
 Step number   1 out of a maximum of  134
 All quantities printed in internal units (Hartrees-Bohrs-Radians)
 Mixed Optimization -- RFO/linear search
 Second derivative matrix not updated -- first step.
 ITU=  0
     Eigenvalues ---    0.01040   0.01052   0.01123   0.01405   0.01557
     Eigenvalues ---    0.01648   0.01776   0.01860   0.01970   0.02007
     Eigenvalues ---    0.02057   0.02088   0.02130   0.02184   0.02218
     Eigenvalues ---    0.02260   0.02270   0.02319   0.02340   0.02406
     Eigenvalues ---    0.07314   0.07334   0.07641   0.07696   0.15992
     Eigenvalues ---    0.15995   0.15999   0.15999   0.16000   0.16000
     Eigenvalues ---    0.16000   0.16000   0.16000   0.16000   0.16000
     Eigenvalues ---    0.16000   0.16000   0.21601   0.22000   0.22000
     Eigenvalues ---    0.22003   0.22455   0.22657   0.24440   0.24909
     Eigenvalues ---    0.24936   0.24979   0.24989   0.33502   0.33621
     Eigenvalues ---    0.34531   0.34574   0.34656   0.34677   0.34700
     Eigenvalues ---    0.35486   0.35539   0.35553   0.35559   0.35588
     Eigenvalues ---    0.35649   0.36285   0.37413   0.38456   0.39174
     Eigenvalues ---    0.42379   0.45327   0.47298   0.47966   0.49809
     Eigenvalues ---    0.49832   0.50968   0.51156   0.55719   0.84780
 RFO step:  Lambda=-6.97002692D-03 EMin= 1.04047615D-02
 Linear search not attempted -- first point.
 Iteration  1 RMS(Cart)=  0.06773699 RMS(Int)=  0.00152729
 Iteration  2 RMS(Cart)=  0.00203064 RMS(Int)=  0.00004760
 Iteration  3 RMS(Cart)=  0.00000472 RMS(Int)=  0.00004745
 Iteration  4 RMS(Cart)=  0.00000000 RMS(Int)=  0.00004745
 Variable       Old X    -DE/DX   Delta X   Delta X   Delta X     New X
                                 (Linear)    (Quad)   (Total)
    R1        2.06164  -0.00036   0.00000  -0.00102  -0.00102   2.06063
    R2        2.08178  -0.00079   0.00000  -0.00232  -0.00232   2.07946
    R3        2.72692   0.00196   0.00000   0.00493   0.00493   2.73185
    R4        2.06372   0.00013   0.00000   0.00038   0.00038   2.06410
    R5        2.07974  -0.00101   0.00000  -0.00295  -0.00295   2.07679
    R6        2.73706   0.00236   0.00000   0.00604   0.00604   2.74310
    R7        2.06202   0.00003   0.00000   0.00008   0.00008   2.06210
    R8        2.06444  -0.00037   0.00000  -0.00105  -0.00105   2.06338
    R9        2.60058  -0.00253   0.00000  -0.00501  -0.00501   2.59557
   R10        2.04635   0.00029   0.00000   0.00078   0.00078   2.04713
   R11        2.60035  -0.00684   0.00000  -0.01354  -0.01354   2.58680
   R12        2.61975   0.01303   0.00000   0.02677   0.02677   2.64652
   R13        2.04731   0.00074   0.00000   0.00204   0.00204   2.04935
   R14        2.58901   0.01606   0.00000   0.03108   0.03108   2.62009
   R15        2.79537  -0.01053   0.00000  -0.02979  -0.02979   2.76558
   R16        1.81198   0.00581   0.00000   0.01030   0.01030   1.82228
   R17        2.74874   0.00281   0.00000   0.00783   0.00783   2.75657
   R18        2.61606   0.00740   0.00000   0.01553   0.01553   2.63159
   R19        2.35436   0.00363   0.00000   0.00424   0.00424   2.35860
   R20        2.73826   0.00022   0.00000   0.00047   0.00048   2.73874
   R21        2.62661  -0.00601   0.00000  -0.01245  -0.01246   2.61416
   R22        2.04809   0.00009   0.00000   0.00024   0.00024   2.04833
   R23        2.04787   0.00004   0.00000   0.00011   0.00011   2.04798
   R24        2.57741  -0.00282   0.00000  -0.00575  -0.00575   2.57165
   R25        2.67028   0.00535   0.00000   0.01168   0.01167   2.68195
   R26        2.04777  -0.00032   0.00000  -0.00087  -0.00087   2.04690
   R27        2.04893  -0.00039   0.00000  -0.00109  -0.00109   2.04785
    A1        1.89375   0.00008   0.00000   0.00003   0.00003   1.89378
    A2        1.90564  -0.00018   0.00000  -0.00103  -0.00103   1.90461
    A3        1.88571   0.00002   0.00000   0.00073   0.00073   1.88643
    A4        1.96246  -0.00017   0.00000  -0.00130  -0.00130   1.96116
    A5        1.89232  -0.00014   0.00000  -0.00095  -0.00095   1.89137
    A6        1.92223   0.00039   0.00000   0.00256   0.00256   1.92480
    A7        1.96065  -0.00024   0.00000  -0.00166  -0.00166   1.95899
    A8        1.88934   0.00012   0.00000   0.00141   0.00141   1.89075
    A9        1.89492   0.00000   0.00000  -0.00109  -0.00109   1.89383
   A10        1.91312   0.00027   0.00000   0.00221   0.00221   1.91533
   A11        1.91617  -0.00016   0.00000  -0.00133  -0.00133   1.91484
   A12        1.88805   0.00002   0.00000   0.00055   0.00055   1.88860
   A13        2.01812   0.00049   0.00000   0.00213   0.00213   2.02025
   A14        2.07738  -0.00065   0.00000  -0.00286  -0.00286   2.07452
   A15        2.04633   0.00016   0.00000   0.00079   0.00079   2.04712
   A16        2.00341  -0.00060   0.00000  -0.00321  -0.00321   2.00020
   A17        2.20002   0.00038   0.00000   0.00172   0.00172   2.20174
   A18        2.07887   0.00022   0.00000   0.00168   0.00168   2.08054
   A19        2.16644   0.00015   0.00000   0.00067   0.00066   2.16710
   A20        2.09663  -0.00088   0.00000  -0.00516  -0.00518   2.09145
   A21        2.02011   0.00073   0.00000   0.00447   0.00445   2.02456
   A22        2.08485   0.00446   0.00000   0.01847   0.01832   2.10317
   A23        2.15444  -0.00353   0.00000  -0.01278  -0.01295   2.14149
   A24        2.03829  -0.00085   0.00000  -0.00237  -0.00253   2.03576
   A25        1.77130   0.02618   0.00000   0.15680   0.15680   1.92810
   A26        2.06626  -0.00254   0.00000  -0.01061  -0.01064   2.05562
   A27        2.13020   0.00250   0.00000   0.00904   0.00902   2.13922
   A28        2.08615   0.00005   0.00000   0.00193   0.00193   2.08808
   A29        2.10603  -0.00061   0.00000  -0.00249  -0.00259   2.10344
   A30        2.05374  -0.00033   0.00000  -0.00042  -0.00048   2.05326
   A31        2.12299   0.00095   0.00000   0.00357   0.00347   2.12647
   A32        2.11059  -0.00153   0.00000  -0.00555  -0.00556   2.10503
   A33        2.07986   0.00112   0.00000   0.00497   0.00496   2.08482
   A34        2.09247   0.00041   0.00000   0.00076   0.00075   2.09322
   A35        2.04416   0.00081   0.00000   0.00510   0.00509   2.04925
   A36        2.10700  -0.00036   0.00000  -0.00274  -0.00272   2.10428
   A37        2.13199  -0.00045   0.00000  -0.00240  -0.00241   2.12957
   A38        2.10748   0.00071   0.00000   0.00250   0.00249   2.10997
   A39        2.09125  -0.00051   0.00000  -0.00213  -0.00213   2.08912
   A40        2.08441  -0.00021   0.00000  -0.00033  -0.00033   2.08408
   A41        2.09973   0.00146   0.00000   0.00464   0.00465   2.10438
   A42        2.10116  -0.00087   0.00000  -0.00318  -0.00318   2.09797
   A43        2.08229  -0.00059   0.00000  -0.00146  -0.00147   2.08082
    D1       -0.67977   0.00015   0.00000   0.00218   0.00218  -0.67759
    D2        3.02246   0.00007   0.00000   0.00175   0.00175   3.02421
    D3        1.42303   0.00002   0.00000   0.00068   0.00068   1.42371
    D4       -1.15792  -0.00006   0.00000   0.00025   0.00025  -1.15767
    D5       -2.74766   0.00000   0.00000   0.00039   0.00039  -2.74727
    D6        0.95457  -0.00008   0.00000  -0.00003  -0.00003   0.95454
    D7       -1.16752   0.00030   0.00000   0.00531   0.00531  -1.16221
    D8        1.42374   0.00011   0.00000   0.00451   0.00451   1.42825
    D9        3.01448   0.00013   0.00000   0.00310   0.00310   3.01759
   D10       -0.67744  -0.00007   0.00000   0.00230   0.00230  -0.67514
   D11        0.94283   0.00003   0.00000   0.00190   0.00190   0.94473
   D12       -2.74909  -0.00017   0.00000   0.00110   0.00110  -2.74799
   D13        3.06652  -0.00024   0.00000  -0.01129  -0.01129   3.05524
   D14       -0.12119  -0.00008   0.00000  -0.00616  -0.00616  -0.12735
   D15        0.49446  -0.00042   0.00000  -0.01212  -0.01211   0.48235
   D16       -2.69325  -0.00026   0.00000  -0.00699  -0.00699  -2.70024
   D17       -3.05732   0.00012   0.00000   0.00371   0.00370  -3.05362
   D18        0.08140  -0.00021   0.00000  -0.00716  -0.00715   0.07425
   D19        0.03635   0.00026   0.00000   0.00893   0.00892   0.04527
   D20       -3.10811  -0.00006   0.00000  -0.00194  -0.00192  -3.11004
   D21       -0.08658   0.00017   0.00000   0.01046   0.01050  -0.07608
   D22       -3.11089  -0.00059   0.00000  -0.02415  -0.02422  -3.13510
   D23        3.05777   0.00049   0.00000   0.02091   0.02098   3.07875
   D24        0.03346  -0.00027   0.00000  -0.01369  -0.01374   0.01973
   D25        2.18813   0.00117   0.00000   0.03543   0.03526   2.22339
   D26       -1.06306   0.00168   0.00000   0.06695   0.06713  -0.99593
   D27       -1.71505  -0.00101   0.00000  -0.07366  -0.07381  -1.78886
   D28        1.46308  -0.00128   0.00000  -0.08522  -0.08535   1.37773
   D29        1.54093  -0.00209   0.00000  -0.10874  -0.10861   1.43232
   D30       -1.56412  -0.00236   0.00000  -0.12030  -0.12015  -1.68427
   D31       -0.06088   0.00035   0.00000   0.01847   0.01848  -0.04240
   D32        3.11164  -0.00018   0.00000  -0.00548  -0.00540   3.10624
   D33        3.04513   0.00067   0.00000   0.02989   0.02983   3.07496
   D34       -0.06554   0.00014   0.00000   0.00594   0.00595  -0.05959
   D35       -3.12460  -0.00008   0.00000  -0.00008  -0.00002  -3.12462
   D36       -0.00777   0.00017   0.00000   0.00856   0.00861   0.00084
   D37        0.05394  -0.00031   0.00000  -0.01151  -0.01152   0.04242
   D38       -3.11243  -0.00006   0.00000  -0.00287  -0.00288  -3.11531
   D39       -3.10991  -0.00005   0.00000  -0.00201  -0.00203  -3.11194
   D40        0.04105   0.00006   0.00000   0.00196   0.00197   0.04303
   D41        0.06293  -0.00056   0.00000  -0.02610  -0.02613   0.03680
   D42       -3.06929  -0.00045   0.00000  -0.02212  -0.02213  -3.09142
   D43       -0.01588   0.00024   0.00000   0.00899   0.00900  -0.00688
   D44        3.11521   0.00039   0.00000   0.01398   0.01396   3.12917
   D45       -3.13253  -0.00002   0.00000   0.00023   0.00026  -3.13226
   D46       -0.00144   0.00013   0.00000   0.00522   0.00523   0.00379
   D47       -0.00408  -0.00012   0.00000  -0.00465  -0.00468  -0.00875
   D48        3.13530  -0.00016   0.00000  -0.00553  -0.00555   3.12976
   D49       -3.13582  -0.00001   0.00000  -0.00051  -0.00053  -3.13635
   D50        0.00356  -0.00005   0.00000  -0.00138  -0.00140   0.00216
   D51       -0.00990  -0.00002   0.00000  -0.00068  -0.00070  -0.01060
   D52        3.13388   0.00002   0.00000   0.00019   0.00016   3.13404
   D53       -3.14103  -0.00017   0.00000  -0.00564  -0.00564   3.13652
   D54        0.00275  -0.00013   0.00000  -0.00477  -0.00478  -0.00203
         Item               Value     Threshold  Converged?
 Maximum Force            0.026180     0.000450     NO 
 RMS     Force            0.003536     0.000300     NO 
 Maximum Displacement     0.233216     0.001800     NO 
 RMS     Displacement     0.067686     0.001200     NO 
 Predicted change in Energy=-3.759829D-03
 GradGradGradGradGradGradGradGradGradGradGradGradGradGradGradGradGradGrad

                          Input orientation:                          
 ---------------------------------------------------------------------
 Center     Atomic      Atomic             Coordinates (Angstroms)
 Number     Number       Type             X           Y           Z
 ---------------------------------------------------------------------
      1          6           0        3.434659    1.377822    1.141342
      2          1           0        4.393774    1.580707    1.618823
      3          1           0        3.161407    2.246444    0.523507
      4          6           0        4.791663   -0.027610   -0.343145
      5          1           0        4.933332    0.712762   -1.142868
      6          7           0        3.539327    0.162285    0.365867
      7          1           0        2.683031    1.263121    1.925538
      8          1           0        4.815439   -1.023273   -0.789061
      9          1           0        5.626563    0.053200    0.355889
     10          6           0        2.405159   -0.357161   -0.208927
     11          1           0        2.574912   -1.219397   -0.842377
     12          6           0        1.124873    0.085687   -0.012514
     13          6           0       -0.012647   -0.537601   -0.540620
     14          1           0        0.945695    0.965419    0.595797
     15          8           0        0.111895   -1.624851   -1.391932
     16          6           0       -1.367396   -0.031410   -0.316552
     17          6           0       -2.193557   -0.714815    0.672522
     18          6           0       -1.892549    1.044942   -1.027150
     19          8           0       -1.764819   -1.724682    1.267632
     20          6           0       -3.518324   -0.183869    0.924504
     21          6           0       -3.171957    1.502945   -0.768281
     22          1           0       -1.284400    1.534979   -1.778760
     23          1           0       -0.422693   -2.362946   -1.076769
     24          1           0       -4.118228   -0.677363    1.680202
     25          6           0       -3.981680    0.883750    0.219216
     26          1           0       -3.561450    2.348617   -1.321813
     27          1           0       -4.977362    1.269144    0.404786
 ---------------------------------------------------------------------
                    Distance matrix (angstroms):
                    1          2          3          4          5
     1  C    0.000000
     2  H    1.090436   0.000000
     3  H    1.100405   1.778103   0.000000
     4  C    2.453650   2.567940   2.929187   0.000000
     5  H    2.811750   2.944722   2.875535   1.098990   0.000000
     6  N    1.445630   2.076511   2.124003   1.451587   2.126630
     7  H    1.092275   1.766799   1.778049   3.355479   3.844719
     8  H    3.376131   3.571612   3.892261   1.091215   1.775639
     9  H    2.678806   2.334105   3.303847   1.091895   1.778163
    10  C    2.427605   3.324243   2.808403   2.412887   2.899765
    11  H    3.379328   4.148054   3.771163   2.565848   3.063605
    12  C    2.887232   3.947412   3.017227   3.683410   4.021851
    13  C    4.287396   5.344808   4.354066   4.835337   5.137005
    14  H    2.581209   3.648892   2.560396   4.081567   4.357527
    15  O    5.145317   6.137975   5.287283   5.054836   5.364021
    16  C    5.212593   6.287741   5.138519   6.159118   6.398106
    17  C    6.022934   7.039733   6.121021   7.092047   7.491739
    18  C    5.761277   6.841496   5.421311   6.804184   6.834938
    19  O    6.056076   6.998372   6.371128   6.961474   7.524418
    20  C    7.129507   8.136160   7.119412   8.407570   8.746911
    21  C    6.878204   7.933763   6.506382   8.120504   8.152325
    22  H    5.551686   6.617199   5.056859   6.435932   6.304013
    23  H    5.813134   6.783581   6.054183   5.760339   6.176677
    24  H    7.846035   8.806635   7.929671   9.159818   9.582948
    25  C    7.489761   8.520146   7.278271   8.838460   9.020085
    26  H    7.480316   8.516022   6.972264   8.739494   8.652709
    27  H    8.444906   9.454584   8.198096   9.883058  10.046226
                    6          7          8          9         10
     6  N    0.000000
     7  H    2.092285   0.000000
     8  H    2.089944   4.140508   0.000000
     9  H    2.090108   3.548533   1.768510   0.000000
    10  C    1.373517   2.694154   2.567043   3.296188   0.000000
    11  H    2.073402   3.719670   2.249726   3.516805   1.083295
    12  C    2.445123   2.751409   3.931043   4.516856   1.368877
    13  C    3.732034   4.073231   4.858808   5.740511   2.447113
    14  H    2.724852   2.207979   4.565922   4.774958   2.127636
    15  O    4.246293   5.094775   4.780029   6.023479   2.874996
    16  C    4.957736   4.807155   6.279690   7.026720   3.788122
    17  C    5.807693   5.409564   7.166407   7.864119   4.696068
    18  C    5.676694   5.449944   7.023624   7.709305   4.594090
    19  O    5.701561   5.398442   6.929773   7.656675   4.630233
    20  C    7.088182   6.446134   8.549415   9.165614   6.033435
    21  C    6.937217   6.449422   8.377392   8.987739   5.905682
    22  H    5.454544   5.434725   6.688213   7.383346   4.433668
    23  H    4.914834   5.639834   5.414381   6.669615   3.573943
[...]
 Alpha  occ. eigenvalues --   -0.42668  -0.41411  -0.35791  -0.33184  -0.31301
 Alpha  occ. eigenvalues --   -0.26849
 Alpha virt. eigenvalues --   -0.02636   0.03781   0.04672   0.05299   0.05567
 Alpha virt. eigenvalues --    0.06097   0.06326   0.06867   0.07857   0.08133
 Alpha virt. eigenvalues --    0.08199   0.08760   0.09325   0.09861   0.10731
 Alpha virt. eigenvalues --    0.11240   0.11861   0.12655   0.13239   0.13684
 Alpha virt. eigenvalues --    0.13842   0.14712   0.15066   0.15645   0.16068
 Alpha virt. eigenvalues --    0.16074   0.16382   0.16705   0.17140   0.17240
 Alpha virt. eigenvalues --    0.17888   0.18210   0.18790   0.18959   0.19079
 Alpha virt. eigenvalues --    0.19678   0.19903   0.20546   0.20875   0.21513
 Alpha virt. eigenvalues --    0.21615   0.21772   0.21901   0.22902   0.23164
 Alpha virt. eigenvalues --    0.24193   0.24451   0.24498   0.25172   0.25899
 Alpha virt. eigenvalues --    0.26088   0.26539   0.26795   0.27178   0.27488
 Alpha virt. eigenvalues --    0.27807   0.28259   0.28537   0.29383   0.29662
 Alpha virt. eigenvalues --    0.29854   0.30676   0.32022   0.32738   0.32902
 Alpha virt. eigenvalues --    0.33262   0.33878   0.34457   0.35093   0.35495
 Alpha virt. eigenvalues --    0.36005   0.36193   0.36936   0.37389   0.37746
 Alpha virt. eigenvalues --    0.38316   0.38602   0.39039   0.39493   0.39727
 Alpha virt. eigenvalues --    0.40788   0.41108   0.42434   0.42979   0.43370
 Alpha virt. eigenvalues --    0.44442   0.44597   0.46183   0.47269   0.48453
 Alpha virt. eigenvalues --    0.50126   0.51090   0.51778   0.52573   0.53040
 Alpha virt. eigenvalues --    0.54485   0.55984   0.57183   0.58527   0.59858
 Alpha virt. eigenvalues --    0.61479   0.61894   0.62434   0.63597   0.64313
 Alpha virt. eigenvalues --    0.64876   0.65716   0.65779   0.67096   0.67466
 Alpha virt. eigenvalues --    0.68526   0.69270   0.69782   0.69909   0.70808
 Alpha virt. eigenvalues --    0.71123   0.71605   0.72111   0.72922   0.74148
 Alpha virt. eigenvalues --    0.75117   0.76037   0.76655   0.77914   0.78548
 Alpha virt. eigenvalues --    0.78990   0.79954   0.80594   0.82923   0.83613
 Alpha virt. eigenvalues --    0.85529   0.86169   0.87115   0.88368   0.89377
 Alpha virt. eigenvalues --    0.91596   0.93811   0.94057   0.94871   0.95419
 Alpha virt. eigenvalues --    0.96466   0.97305   0.97788   0.99227   1.00457
 Alpha virt. eigenvalues --    1.01695   1.03420   1.04127   1.04870   1.06026
 Alpha virt. eigenvalues --    1.07295   1.07612   1.09291   1.11129   1.11334
 Alpha virt. eigenvalues --    1.12539   1.13322   1.14475   1.15203   1.15663
 Alpha virt. eigenvalues --    1.18249   1.18648   1.19092   1.20920   1.21116
 Alpha virt. eigenvalues --    1.21804   1.29428   1.30250   1.30870   1.33231
 Alpha virt. eigenvalues --    1.33493   1.37037   1.37670   1.39839   1.43104
 Alpha virt. eigenvalues --    1.44669   1.46878   1.51166   1.52095   1.52638
 Alpha virt. eigenvalues --    1.53776   1.55034   1.56777   1.57945   1.58396
 Alpha virt. eigenvalues --    1.59386   1.61242   1.63149   1.63490   1.64760
 Alpha virt. eigenvalues --    1.65122   1.65371   1.66847   1.67606   1.68629
 Alpha virt. eigenvalues --    1.69536   1.71498   1.74238   1.75003   1.76211
 Alpha virt. eigenvalues --    1.77085   1.78647   1.80779   1.81367   1.82514
 Alpha virt. eigenvalues --    1.82968   1.83662   1.83828   1.85241   1.87723
 Alpha virt. eigenvalues --    1.88258   1.89626   1.93276   1.95298   1.96729
 Alpha virt. eigenvalues --    1.97646   1.99279   2.00158   2.00925   2.02282
 Alpha virt. eigenvalues --    2.04146   2.05961   2.06904   2.07484   2.08032
 Alpha virt. eigenvalues --    2.09632   2.10470   2.12512   2.13922   2.15488
 Alpha virt. eigenvalues --    2.17381   2.20622   2.21235   2.24695   2.25186
 Alpha virt. eigenvalues --    2.25571   2.31105   2.33488   2.35673   2.38256
 Alpha virt. eigenvalues --    2.39937   2.40656   2.42425   2.45846   2.47395
 Alpha virt. eigenvalues --    2.51061   2.53691   2.55175   2.55687   2.57668
 Alpha virt. eigenvalues --    2.58953   2.59544   2.61314   2.63298   2.64247
 Alpha virt. eigenvalues --    2.66864   2.70415   2.71130   2.71408   2.73349
 Alpha virt. eigenvalues --    2.77035   2.77599   2.80098   2.80327   2.80919
 Alpha virt. eigenvalues --    2.82564   2.83551   2.84108   2.85497   2.85958
 Alpha virt. eigenvalues --    2.86240   2.88139   2.89867   2.90964   2.92345
 Alpha virt. eigenvalues --    2.93062   2.95490   2.96330   2.96733   2.99583
 Alpha virt. eigenvalues --    3.01930   3.04434   3.06520   3.10715   3.13046
 Alpha virt. eigenvalues --    3.16329   3.17365   3.19754   3.19857   3.23930
 Alpha virt. eigenvalues --    3.26950   3.29059   3.31619   3.34454   3.39719
 Alpha virt. eigenvalues --    3.42026   3.44051   3.50630   3.52099   3.57999
 Alpha virt. eigenvalues --    3.60350   3.63649   3.65943   3.68707   3.71500
 Alpha virt. eigenvalues --    3.75858   3.78435   3.80799   3.82927   3.86017
 Alpha virt. eigenvalues --    3.87842   3.94181   3.95368   4.01343   4.08265
 Alpha virt. eigenvalues --    4.10919   4.14414   4.17582   4.28989   4.32341
 Alpha virt. eigenvalues --    4.37104   4.66389   4.90841   4.98031   5.11040
 Alpha virt. eigenvalues --    5.17317   5.19954   5.39761   5.61583   5.87979
 Alpha virt. eigenvalues --    5.92376  23.74673  23.91740  24.01024  24.04715
 Alpha virt. eigenvalues --   24.06226  24.08346  24.09489  24.14610  24.21833
 Alpha virt. eigenvalues --   24.23408  24.30747  35.69209  50.09805  50.21042
          Condensed to atoms (all electrons):
               1          2          3          4          5          6
     1  C    5.242420   0.385107   0.414807  -0.067696   0.007127   0.240380
     2  H    0.385107   0.444219  -0.014249   0.003383  -0.005337  -0.043885
     3  H    0.414807  -0.014249   0.510860  -0.005076  -0.000919  -0.041078
     4  C   -0.067696   0.003383  -0.005076   5.187198   0.401844   0.254548
     5  H    0.007127  -0.005337  -0.000919   0.401844   0.526796  -0.040227
     6  N    0.240380  -0.043885  -0.041078   0.254548  -0.040227   6.747152
     7  H    0.412048  -0.018387  -0.053781   0.005888   0.001907  -0.031554
     8  H   -0.003111   0.003154  -0.000907   0.401117  -0.028653  -0.098660
     9  H   -0.007312  -0.004493   0.002792   0.404731  -0.057601  -0.038779
    10  C   -0.019385   0.024840  -0.000353  -0.177999  -0.033183   0.237526
    11  H    0.005826  -0.000634  -0.001281  -0.037072   0.004237  -0.049092
    12  C    0.089184   0.020059  -0.014447  -0.029941   0.010710  -0.183753
    13  C   -0.106685  -0.014781   0.007089  -0.031133   0.002067  -0.022113
    14  H    0.012378   0.001359  -0.005829  -0.006958   0.001208  -0.035641
    15  O    0.001578   0.000185   0.000320  -0.000180   0.000046   0.000822
    16  C   -0.117212  -0.001546  -0.005711   0.024866   0.000156  -0.036228
    17  C    0.002031   0.001307  -0.002313   0.006552  -0.000055  -0.001589
    18  C   -0.016921  -0.007032   0.003394  -0.011503   0.000558   0.003437
    19  O    0.000026  -0.000003   0.000026   0.000345   0.000010  -0.000125
    20  C    0.006978   0.000341  -0.000986  -0.000203   0.000017   0.001433
    21  C   -0.002166  -0.000377   0.001840  -0.000025   0.000022  -0.000257
    22  H    0.000977  -0.000083  -0.001152  -0.001547  -0.000084  -0.004034
    23  H   -0.000689  -0.000123   0.000018   0.000111   0.000014  -0.000127
    24  H    0.000028   0.000002  -0.000016   0.000013   0.000000   0.000004
    25  C   -0.003695  -0.000248   0.000499  -0.000048   0.000008  -0.000166
    26  H   -0.000184  -0.000004  -0.000026   0.000050   0.000002   0.000077
    27  H   -0.000089  -0.000006   0.000018   0.000003   0.000000  -0.000013
               7          8          9         10         11         12
     1  C    0.412048  -0.003111  -0.007312  -0.019385   0.005826   0.089184
     2  H   -0.018387   0.003154  -0.004493   0.024840  -0.000634   0.020059
     3  H   -0.053781  -0.000907   0.002792  -0.000353  -0.001281  -0.014447
     4  C    0.005888   0.401117   0.404731  -0.177999  -0.037072  -0.029941
     5  H    0.001907  -0.028653  -0.057601  -0.033183   0.004237   0.010710
     6  N   -0.031554  -0.098660  -0.038779   0.237526  -0.049092  -0.183753
     7  H    0.519193  -0.002398  -0.001174   0.027628   0.001551  -0.038004
     8  H   -0.002398   0.526927  -0.025445   0.050232  -0.013144   0.015168
     9  H   -0.001174  -0.025445   0.527333  -0.018821   0.001699   0.013307
    10  C    0.027628   0.050232  -0.018821  10.825787   0.330967   0.613805
    11  H    0.001551  -0.013144   0.001699   0.330967   0.439778   0.077859
    12  C   -0.038004   0.015168   0.013307   0.613805   0.077859   9.339830
    13  C   -0.015370   0.014319   0.002198  -2.487083   0.036993   1.454954
    14  H    0.005704  -0.003362   0.000322   0.108276   0.007161   0.582457
    15  O    0.000519  -0.000333   0.000087  -0.117468  -0.003342  -0.374635
    16  C   -0.009057   0.003852   0.000797  -1.544444  -0.065404  -2.232848
    17  C   -0.002371   0.001285  -0.000144  -0.208379  -0.021790  -1.525603
    18  C   -0.002294  -0.002969   0.000507  -1.954182   0.016453  -1.124604
    19  O    0.000018  -0.000158   0.000006   0.008924   0.001385   0.006037
    20  C   -0.000808  -0.000200  -0.000005   0.015339   0.008130   0.534592
    21  C    0.002102  -0.000233   0.000014  -0.015327  -0.000047  -0.369051
    22  H   -0.003837   0.000468  -0.000063  -0.156044   0.000161  -0.088028
    23  H   -0.000100   0.000073   0.000061  -0.028287   0.002402   0.048817
    24  H   -0.000015  -0.000001   0.000000  -0.000369  -0.000103  -0.001198
    25  C    0.000270   0.000005   0.000006  -0.116897  -0.000930  -0.343290
    26  H    0.000056  -0.000004   0.000003   0.005018  -0.000130   0.003199
    27  H    0.000011   0.000000   0.000000  -0.001709  -0.000008  -0.008294
              13         14         15         16         17         18
     1  C   -0.106685   0.012378   0.001578  -0.117212   0.002031  -0.016921
     2  H   -0.014781   0.001359   0.000185  -0.001546   0.001307  -0.007032
     3  H    0.007089  -0.005829   0.000320  -0.005711  -0.002313   0.003394
     4  C   -0.031133  -0.006958  -0.000180   0.024866   0.006552  -0.011503
     5  H    0.002067   0.001208   0.000046   0.000156  -0.000055   0.000558
     6  N   -0.022113  -0.035641   0.000822  -0.036228  -0.001589   0.003437
     7  H   -0.015370   0.005704   0.000519  -0.009057  -0.002371  -0.002294
     8  H    0.014319  -0.003362  -0.000333   0.003852   0.001285  -0.002969
     9  H    0.002198   0.000322   0.000087   0.000797  -0.000144   0.000507
    10  C   -2.487083   0.108276  -0.117468  -1.544444  -0.208379  -1.954182
    11  H    0.036993   0.007161  -0.003342  -0.065404  -0.021790   0.016453
    12  C    1.454954   0.582457  -0.374635  -2.232848  -1.525603  -1.124604
    13  C    8.514069  -0.068098   0.564816   0.951795  -2.229767   0.106324
    14  H   -0.068098   0.564812  -0.019478  -0.218651  -0.029473  -0.011422
    15  O    0.564816  -0.019478   8.120212   0.090299  -0.083161  -0.015090
    16  C    0.951795  -0.218651   0.090299  14.738814  -0.387893  -2.404956
    17  C   -2.229767  -0.029473  -0.083161  -0.387893  14.831290  -3.589528
    18  C    0.106324  -0.011422  -0.015090  -2.404956  -3.589528  13.585215
    19  O   -0.067683   0.000811   0.002934  -0.091380   0.428247   0.017969
    20  C   -0.018420   0.041811  -0.062662  -2.601439  -1.201965   0.876624
    21  C   -0.253977  -0.065711   0.013782  -1.267642   0.049891   1.278505
    22  H    0.010152  -0.011049   0.002163  -0.039404   0.045707   0.626903
    23  H    0.026908   0.000513   0.209963  -0.136549  -0.038855   0.065944
    24  H   -0.005455   0.000927  -0.000408  -0.063345  -0.077992  -0.001617
    25  C   -0.290247  -0.022624  -0.007027  -0.334138  -0.028975   0.202375
    26  H    0.003143   0.003401   0.000416   0.040752   0.017235  -0.058956
    27  H   -0.001024  -0.001413  -0.000103   0.047221   0.019355  -0.034488
              19         20         21         22         23         24
     1  C    0.000026   0.006978  -0.002166   0.000977  -0.000689   0.000028
     2  H   -0.000003   0.000341  -0.000377  -0.000083  -0.000123   0.000002
     3  H    0.000026  -0.000986   0.001840  -0.001152   0.000018  -0.000016
     4  C    0.000345  -0.000203  -0.000025  -0.001547   0.000111   0.000013
     5  H    0.000010   0.000017   0.000022  -0.000084   0.000014   0.000000
     6  N   -0.000125   0.001433  -0.000257  -0.004034  -0.000127   0.000004
     7  H    0.000018  -0.000808   0.002102  -0.003837  -0.000100  -0.000015
     8  H   -0.000158  -0.000200  -0.000233   0.000468   0.000073  -0.000001
     9  H    0.000006  -0.000005   0.000014  -0.000063   0.000061   0.000000
    10  C    0.008924   0.015339  -0.015327  -0.156044  -0.028287  -0.000369
    11  H    0.001385   0.008130  -0.000047   0.000161   0.002402  -0.000103
    12  C    0.006037   0.534592  -0.369051  -0.088028   0.048817  -0.001198
    13  C   -0.067683  -0.018420  -0.253977   0.010152   0.026908  -0.005455
    14  H    0.000811   0.041811  -0.065711  -0.011049   0.000513   0.000927
    15  O    0.002934  -0.062662   0.013782   0.002163   0.209963  -0.000408
    16  C   -0.091380  -2.601439  -1.267642  -0.039404  -0.136549  -0.063345
    17  C    0.428247  -1.201965   0.049891   0.045707  -0.038855  -0.077992
    18  C    0.017969   0.876624   1.278505   0.626903   0.065944  -0.001617
    19  O    8.455575  -0.299428  -0.023795  -0.002035   0.072683  -0.015006
    20  C   -0.299428   8.599420  -0.373186  -0.003313   0.058301   0.505202
    21  C   -0.023795  -0.373186   6.904766  -0.043527   0.005598  -0.000192
    22  H   -0.002035  -0.003313  -0.043527   0.523783   0.002088  -0.000873
    23  H    0.072683   0.058301   0.005598   0.002088   0.301267  -0.000060
    24  H   -0.015006   0.505202  -0.000192  -0.000873  -0.000060   0.454235
    25  C    0.022852   0.429486   0.477170   0.044483   0.001939  -0.014843
    26  H   -0.000454   0.006572   0.375794  -0.016150   0.000023   0.001218
    27  H    0.001827  -0.027469  -0.036105   0.002485   0.000091  -0.008249
              25         26         27
     1  C   -0.003695  -0.000184  -0.000089
     2  H   -0.000248  -0.000004  -0.000006
     3  H    0.000499  -0.000026   0.000018
     4  C   -0.000048   0.000050   0.000003
     5  H    0.000008   0.000002   0.000000
     6  N   -0.000166   0.000077  -0.000013
     7  H    0.000270   0.000056   0.000011
     8  H    0.000005  -0.000004   0.000000
     9  H    0.000006   0.000003   0.000000
    10  C   -0.116897   0.005018  -0.001709
    11  H   -0.000930  -0.000130  -0.000008
    12  C   -0.343290   0.003199  -0.008294
    13  C   -0.290247   0.003143  -0.001024
    14  H   -0.022624   0.003401  -0.001413
    15  O   -0.007027   0.000416  -0.000103
    16  C   -0.334138   0.040752   0.047221
    17  C   -0.028975   0.017235   0.019355
    18  C    0.202375  -0.058956  -0.034488
    19  O    0.022852  -0.000454   0.001827
    20  C    0.429486   0.006572  -0.027469
    21  C    0.477170   0.375794  -0.036105
    22  H    0.044483  -0.016150   0.002485
    23  H    0.001939   0.000023   0.000091
    24  H   -0.014843   0.001218  -0.008249
    25  C    6.086603  -0.068959   0.379195
    26  H   -0.068959   0.457583  -0.007305
    27  H    0.379195  -0.007305   0.442971
 Mulliken charges:
               1
     1  C   -0.475750
     2  H    0.227234
     3  H    0.206461
     4  C   -0.321269
     5  H    0.209329
     6  N    0.141942
     7  H    0.202254
     8  H    0.162978
     9  H    0.199973
    10  C    0.631586
    11  H    0.258375
    12  C   -0.476283
    13  C   -0.082991
    14  H    0.168568
    15  O   -0.324253
    16  C    1.659298
    17  C    0.026953
    18  C   -1.548648
    19  O   -0.519606
    20  C   -0.494159
    21  C   -0.657865
    22  H    0.111855
    23  H    0.407977
    24  H    0.228113
    25  C   -0.412803
    26  H    0.237634
    27  H    0.233098
 Sum of Mulliken charges =   0.00000
 Mulliken charges with hydrogens summed into heavy atoms:
               1
     1  C    0.160200
     4  C    0.251011
     6  N    0.141942
    10  C    0.889960
    12  C   -0.307715
    13  C   -0.082991
    15  O    0.083724
    16  C    1.659298
    17  C    0.026953
    18  C   -1.436794
    19  O   -0.519606
    20  C   -0.266046
    21  C   -0.420232
    25  C   -0.179706
 Electronic spatial extent (au):  <R**2>=           3951.6259
 Charge=              0.0000 electrons
 Dipole moment (field-independent basis, Debye):
    X=            -11.8646    Y=             -5.4691    Z=             -0.0651  Tot=             13.0646
 Quadrupole moment (field-independent basis, Debye-Ang):
   XX=            -54.2478   YY=            -86.0063   ZZ=            -87.9293
   XY=             -8.3731   XZ=              0.2093   YZ=             -0.0709
 Traceless Quadrupole moment (field-independent basis, Debye-Ang):
   XX=             21.8133   YY=             -9.9452   ZZ=            -11.8682
   XY=             -8.3731   XZ=              0.2093   YZ=             -0.0709
 Octapole moment (field-independent basis, Debye-Ang**2):
  XXX=           -180.1236  YYY=            -25.6710  ZZZ=             -0.2770  XYY=            -43.5532
  XXY=            -36.1956  XXZ=             -1.0908  XZZ=            -18.0357  YZZ=              6.3340
  YYZ=              0.1901  XYZ=              0.3933
 Hexadecapole moment (field-independent basis, Debye-Ang**3):
 XXXX=          -3400.2408 YYYY=           -902.9078 ZZZZ=           -110.5030 XXXY=            -79.3128
 XXXZ=             -0.2785 YYYX=            -52.4026 YYYZ=              0.0787 ZZZX=              2.2122
 ZZZY=              0.0381 XXYY=           -844.2510 XXZZ=           -773.8791 YYZZ=           -177.5639
 XXYZ=             -1.4616 YYXZ=             -0.8487 ZZXY=             18.1612
 N-N= 8.354418546346D+02 E-N=-3.144696519720D+03  KE= 6.293868928593D+02
 1\1\GINC-SM9\FOpt\RwB97XD TD-FC\6-311++G(d,p)\C11H13N1O2\CA12053\01-Fe
 b-2017\0\\# wb97xd 6-311++g** opt td=(nstates=1,root=1) SCRF=(PCM,solv
 ent=dichloromethane)\\restarted optimzation\\0,1\C,3.5126286861,1.8392
 879835,0.1717322009\H,4.5311224258,2.2145859012,0.2529886836\H,3.03674
 43228,2.300231652,-0.7011979298\C,4.8472478159,-0.2381574911,-0.083740
 9061\H,5.3487001466,0.0919484346,-0.9994774339\N,3.5480022226,0.396158
 3322,0.0420337161\H,2.9585644412,2.1335163115,1.0688806599\H,4.7272768
 542,-1.3199905286,-0.1192144033\H,5.4777234434,0.018722389,0.771985629
 1\C,2.4191256343,-0.3198716259,-0.034488968\H,2.5511958432,-1.39041362
 57,-0.1400681382\C,1.1344623925,0.1976857636,0.0136834393\C,-0.0052389
 175,-0.632073928,-0.0628221798\H,0.9918822553,1.2639591637,0.108997927
 \O,0.2228433298,-1.9541044843,-0.1835414268\C,-1.3525669672,-0.1253732
 098,-0.0192069984\C,-2.493045748,-1.0682151748,-0.1139786328\C,-1.6572
 532794,1.2359763203,0.1102826753\O,-2.2728661787,-2.3120527327,-0.2305
 199631\C,-3.8170883253,-0.5499743839,-0.0715859171\C,-2.977771557,1.69
 48147801,0.1475574007\H,-0.8650890323,1.9697341139,0.1852894423\H,-0.6
 705696543,-2.3841511345,-0.2281138783\H,-4.6264011596,-1.2679616386,-0
 .1441844675\C,-4.0594819236,0.808357051,0.0570255764\H,-3.1606938412,2
 .7585721409,0.2487818053\H,-5.0747871434,1.1856336104,0.0877573732\\Ve
 rsion=ES64L-G09RevD.01\State=1-A\HF=-632.1462918\RMSD=8.606e-09\RMSF=2
 .849e-06\Dipole=3.4187975,2.4964827,0.2097009\PG=C01 [X(C11H13N1O2)]\\
 @


 Boundary, n.  In political geography, an imaginary
 line between two nations, separating the imaginary
 rights of one from the imaginary rights of another.
                               -- Ambrose Bierce
 Job cpu time:       4 days 14 hours  6 minutes 27.2 seconds.
 File lengths (MBytes):  RWF=    249 Int=      0 D2E=      0 Chk=     25 Scr=      1
 Normal termination of Gaussian 09 at Wed Feb  1 21:46:27 2017.
