 Entering Gaussian System, Link 0=g09
 Input=1_optS1_rotated_DCM.com
 Output=1_optS1_rotated_DCM.out
 Initial command:
 /share/apps/gaussian/g09_D01/g09/l1.exe "/tmp/3885719.1.serial.q/Gau-14177.inp" -scrdir="/tmp/3885719.1.serial.q/"
 Entering Link 1 = /share/apps/gaussian/g09_D01/g09/l1.exe PID=     14178.
  
 Copyright (c) 1988,1990,1992,1993,1995,1998,2003,2009,2013,
            Gaussian, Inc.  All Rights Reserved.
  
 This is part of the Gaussian(R) 09 program.  It is based on
 the Gaussian(R) 03 system (copyright 2003, Gaussian, Inc.),
 the Gaussian(R) 98 system (copyright 1998, Gaussian, Inc.),
 the Gaussian(R) 94 system (copyright 1995, Gaussian, Inc.),
 the Gaussian 92(TM) system (copyright 1992, Gaussian, Inc.),
 the Gaussian 90(TM) system (copyright 1990, Gaussian, Inc.),
 the Gaussian 88(TM) system (copyright 1988, Gaussian, Inc.),
 the Gaussian 86(TM) system (copyright 1986, Carnegie Mellon
 University), and the Gaussian 82(TM) system (copyright 1983,
 Carnegie Mellon University). Gaussian is a federally registered
 trademark of Gaussian, Inc.
  
 This software contains proprietary and confidential information,
 including trade secrets, belonging to Gaussian, Inc.
  
 This software is provided under written license and may be
 used, copied, transmitted, or stored only in accord with that
 written license.
  
 The following legend is applicable only to US Government
 contracts under FAR:
  
                    RESTRICTED RIGHTS LEGEND
  
 Use, reproduction and disclosure by the US Government is
 subject to restrictions as set forth in subparagraphs (a)
 and (c) of the Commercial Computer Software - Restricted
 Rights clause in FAR 52.227-19.
  
 Gaussian, Inc.
 340 Quinnipiac St., Bldg. 40, Wallingford CT 06492
  
  
 ---------------------------------------------------------------
 Warning -- This program may not be used in any manner that
 competes with the business of Gaussian, Inc. or will provide
 assistance to any competitor of Gaussian, Inc.  The licensee
 of this program is prohibited from giving any competitor of
 Gaussian, Inc. access to this program.  By using this program,
 the user acknowledges that Gaussian, Inc. is engaged in the
 business of creating and licensing software in the field of
 computational chemistry and represents and warrants to the
 licensee that it is not a competitor of Gaussian, Inc. and that
 it will not use this program in any manner prohibited above.
 ---------------------------------------------------------------
  

 Cite this work as:
 Gaussian 09, Revision D.01,
 M. J. Frisch, G. W. Trucks, H. B. Schlegel, G. E. Scuseria, 
 M. A. Robb, J. R. Cheeseman, G. Scalmani, V. Barone, B. Mennucci, 
 G. A. Petersson, H. Nakatsuji, M. Caricato, X. Li, H. P. Hratchian, 
 A. F. Izmaylov, J. Bloino, G. Zheng, J. L. Sonnenberg, M. Hada, 
 M. Ehara, K. Toyota, R. Fukuda, J. Hasegawa, M. Ishida, T. Nakajima, 
 Y. Honda, O. Kitao, H. Nakai, T. Vreven, J. A. Montgomery, Jr., 
 J. E. Peralta, F. Ogliaro, M. Bearpark, J. J. Heyd, E. Brothers, 
 K. N. Kudin, V. N. Staroverov, T. Keith, R. Kobayashi, J. Normand, 
 K. Raghavachari, A. Rendell, J. C. Burant, S. S. Iyengar, J. Tomasi, 
 M. Cossi, N. Rega, J. M. Millam, M. Klene, J. E. Knox, J. B. Cross, 
 V. Bakken, C. Adamo, J. Jaramillo, R. Gomperts, R. E. Stratmann, 
 O. Yazyev, A. J. Austin, R. Cammi, C. Pomelli, J. W. Ochterski, 
 R. L. Martin, K. Morokuma, V. G. Zakrzewski, G. A. Voth, 
 P. Salvador, J. J. Dannenberg, S. Dapprich, A. D. Daniels, 
 O. Farkas, J. B. Foresman, J. V. Ortiz, J. Cioslowski, 
 and D. J. Fox, Gaussian, Inc., Wallingford CT, 2013.
 
 ******************************************
 Gaussian 09:  ES64L-G09RevD.01 24-Apr-2013
                25-Dec-2016 
 ******************************************
 %chk=1_optS1_rotated_DCM.chk
 %mem=12GB
 %nproc=4
 Will use up to    4 processors via shared memory.
 ----------------------------------------------------------------------
 # wb97xd 6-311++g** opt td=(nstates=1,root=1) SCRF=(PCM,solvent=dichlo
 romethane)
 ----------------------------------------------------------------------
 1/14=-1,18=20,19=15,26=3,38=1/1,3;
 2/9=110,12=2,17=6,18=5,40=1/2;
 3/5=4,6=6,7=1111,11=9,16=1,25=1,30=1,70=2201,71=1,72=9,74=-58/1,2,8,3;
 4//1;
 5/5=2,38=5,53=9/2;
 8/6=1,10=2,107=1,108=1/1;
 9/8=1,15=2,41=1,42=1,70=2/14;
 10/5=4/2;
 6/7=2,8=2,9=2,10=2/1;
 7/12=6,13=5,14=1/1,2,3,16;
 1/14=-1,18=20,19=15,26=3/3(2);
 2/9=110/2;
 99//99;
 2/9=110/2;
 3/5=4,6=6,7=1111,11=9,16=1,25=1,30=1,70=2205,71=1,72=9,74=-58/1,2,8,3;
 4/5=5,16=3,69=1/1;
 5/5=2,38=5,53=9/2;
 8/6=1,10=2,107=1,108=1/1;
 9/8=1,15=2,41=1,42=1,49=4,70=2/14;
 10/5=4/2;
 7/12=6,13=5,14=1/1,2,3,16;
 1/14=-1,18=20,19=15,26=3/3(-8);
 2/9=110/2;
 6/7=2,8=2,9=2,10=2/1;
 99//99;
 -----
 title
 -----
 Symbolic Z-matrix:
 Charge =  0 Multiplicity = 1
 C                     0.42991   0.01993   8.56421 
 H                     1.26827   0.71007   8.48883 
 H                    -0.31172   0.43657   9.24994 
 C                     0.39771   0.63122   6.15408 
 H                     0.27523   1.69485   6.37335 
 N                    -0.14439  -0.16993   7.23933 
 H                     0.78977  -0.93212   8.95996 
 H                    -0.1229    0.39841   5.22694 
 H                     1.46151   0.41527   6.02738 
 C                    -1.13474  -1.0325    7.03337 
 H                    -1.47995  -1.12112   6.00931 
 C                    -1.75812  -1.80622   7.99953 
 C                    -2.72728  -2.82287   7.5901 
 H                    -1.3788   -1.81516   9.02033 
 O                    -1.97111  -3.84322   7.30302 
 C                    -4.13795  -2.74368   7.59049 
 C                    -4.9199   -3.86626   7.19106 
 C                    -4.82557  -1.5671    7.96517 
 O                    -4.33351  -5.03129   6.82634 
 C                    -6.30023  -3.78354   7.1668 
 C                    -6.20903  -1.49937   7.93722 
 H                    -4.25007  -0.70352   8.28354 
 H                    -3.36888  -4.9315    6.90789 
 H                    -6.85979  -4.65849   6.8562 
 C                    -6.9516   -2.60595   7.53618 
 H                    -6.70953  -0.58395   8.23288 
 H                    -8.03412  -2.56214   7.51319 
 

 GradGradGradGradGradGradGradGradGradGradGradGradGradGradGradGradGradGrad
 Berny optimization.
 Initialization pass.
                           ----------------------------
                           !    Initial Parameters    !
                           ! (Angstroms and Degrees)  !
 --------------------------                            --------------------------
 ! Name  Definition              Value          Derivative Info.                !
 --------------------------------------------------------------------------------
 ! R1    R(1,2)                  1.0885         estimate D2E/DX2                !
 ! R2    R(1,3)                  1.0926         estimate D2E/DX2                !
 ! R3    R(1,6)                  1.4564         estimate D2E/DX2                !
 ! R4    R(1,7)                  1.092          estimate D2E/DX2                !
 ! R5    R(4,5)                  1.0929         estimate D2E/DX2                !
 ! R6    R(4,6)                  1.4538         estimate D2E/DX2                !
 ! R7    R(4,8)                  1.0885         estimate D2E/DX2                !
 ! R8    R(4,9)                  1.0929         estimate D2E/DX2                !
 ! R9    R(6,10)                 1.3294         estimate D2E/DX2                !
 ! R10   R(10,11)                1.0843         estimate D2E/DX2                !
 ! R11   R(10,12)                1.3859         estimate D2E/DX2                !
 ! R12   R(12,13)                1.463          estimate D2E/DX2                !
 ! R13   R(12,14)                1.089          estimate D2E/DX2                !
 ! R14   R(13,15)                1.302          estimate D2E/DX2                !
 ! R15   R(13,16)                1.4129         estimate D2E/DX2                !
 ! R16   R(16,17)                1.4252         estimate D2E/DX2                !
 ! R17   R(16,18)                1.4133         estimate D2E/DX2                !
 ! R18   R(17,19)                1.3543         estimate D2E/DX2                !
 ! R19   R(17,20)                1.383          estimate D2E/DX2                !
 ! R20   R(18,21)                1.3854         estimate D2E/DX2                !
 ! R21   R(18,22)                1.0855         estimate D2E/DX2                !
 ! R22   R(19,23)                0.9732         estimate D2E/DX2                !
 ! R23   R(20,24)                1.084          estimate D2E/DX2                !
 ! R24   R(20,25)                1.3955         estimate D2E/DX2                !
 ! R25   R(21,25)                1.3917         estimate D2E/DX2                !
 ! R26   R(21,26)                1.0844         estimate D2E/DX2                !
 ! R27   R(25,27)                1.0836         estimate D2E/DX2                !
 ! A1    A(2,1,3)              108.9335         estimate D2E/DX2                !
 ! A2    A(2,1,6)              108.8667         estimate D2E/DX2                !
 ! A3    A(2,1,7)              108.9081         estimate D2E/DX2                !
 ! A4    A(3,1,6)              110.669          estimate D2E/DX2                !
 ! A5    A(3,1,7)              109.1887         estimate D2E/DX2                !
 ! A6    A(6,1,7)              110.2403         estimate D2E/DX2                !
 ! A7    A(5,4,6)              110.1675         estimate D2E/DX2                !
 ! A8    A(5,4,8)              108.9932         estimate D2E/DX2                !
 ! A9    A(5,4,9)              108.9457         estimate D2E/DX2                !
 ! A10   A(6,4,8)              109.8538         estimate D2E/DX2                !
 ! A11   A(6,4,9)              109.9147         estimate D2E/DX2                !
 ! A12   A(8,4,9)              108.938          estimate D2E/DX2                !
 ! A13   A(1,6,4)              117.3999         estimate D2E/DX2                !
 ! A14   A(1,6,10)             121.284          estimate D2E/DX2                !
 ! A15   A(4,6,10)             121.3127         estimate D2E/DX2                !
 ! A16   A(6,10,11)            115.8824         estimate D2E/DX2                !
 ! A17   A(6,10,12)            126.1091         estimate D2E/DX2                !
 ! A18   A(11,10,12)           118.0067         estimate D2E/DX2                !
 ! A19   A(10,12,13)           119.3937         estimate D2E/DX2                !
 ! A20   A(10,12,14)           120.0909         estimate D2E/DX2                !
 ! A21   A(13,12,14)           119.1661         estimate D2E/DX2                !
 ! A22   A(12,13,15)           102.7997         estimate D2E/DX2                !
 ! A23   A(12,13,16)           128.4889         estimate D2E/DX2                !
 ! A24   A(15,13,16)           128.5961         estimate D2E/DX2                !
 ! A25   A(13,16,17)           120.2365         estimate D2E/DX2                !
 ! A26   A(13,16,18)           122.1739         estimate D2E/DX2                !
 ! A27   A(17,16,18)           117.5861         estimate D2E/DX2                !
 ! A28   A(16,17,19)           121.0305         estimate D2E/DX2                !
 ! A29   A(16,17,20)           120.3577         estimate D2E/DX2                !
 ! A30   A(19,17,20)           118.6117         estimate D2E/DX2                !
 ! A31   A(16,18,21)           121.412          estimate D2E/DX2                !
 ! A32   A(16,18,22)           118.8219         estimate D2E/DX2                !
 ! A33   A(21,18,22)           119.7657         estimate D2E/DX2                !
 ! A34   A(17,19,23)           108.5666         estimate D2E/DX2                !
 ! A35   A(17,20,24)           118.1599         estimate D2E/DX2                !
 ! A36   A(17,20,25)           120.7758         estimate D2E/DX2                !
 ! A37   A(24,20,25)           121.064          estimate D2E/DX2                !
 ! A38   A(18,21,25)           119.985          estimate D2E/DX2                !
 ! A39   A(18,21,26)           119.7797         estimate D2E/DX2                !
 ! A40   A(25,21,26)           120.2347         estimate D2E/DX2                !
 ! A41   A(20,25,21)           119.881          estimate D2E/DX2                !
 ! A42   A(20,25,27)           119.6544         estimate D2E/DX2                !
 ! A43   A(21,25,27)           120.4638         estimate D2E/DX2                !
 ! D1    D(2,1,6,4)             -4.8504         estimate D2E/DX2                !
 ! D2    D(2,1,6,10)           175.809          estimate D2E/DX2                !
 ! D3    D(3,1,6,4)            114.8457         estimate D2E/DX2                !
 ! D4    D(3,1,6,10)           -64.495          estimate D2E/DX2                !
 ! D5    D(7,1,6,4)           -124.2562         estimate D2E/DX2                !
 ! D6    D(7,1,6,10)            56.4032         estimate D2E/DX2                !
 ! D7    D(5,4,6,1)            -59.4298         estimate D2E/DX2                !
 ! D8    D(5,4,6,10)           119.9107         estimate D2E/DX2                !
 ! D9    D(8,4,6,1)           -179.5121         estimate D2E/DX2                !
 ! D10   D(8,4,6,10)            -0.1716         estimate D2E/DX2                !
 ! D11   D(9,4,6,1)             60.6323         estimate D2E/DX2                !
 ! D12   D(9,4,6,10)          -120.0272         estimate D2E/DX2                !
 ! D13   D(1,6,10,11)         -178.5967         estimate D2E/DX2                !
 ! D14   D(1,6,10,12)            1.8956         estimate D2E/DX2                !
 ! D15   D(4,6,10,11)            2.0885         estimate D2E/DX2                !
 ! D16   D(4,6,10,12)         -177.4192         estimate D2E/DX2                !
 ! D17   D(6,10,12,13)        -172.8925         estimate D2E/DX2                !
 ! D18   D(6,10,12,14)          -6.2613         estimate D2E/DX2                !
 ! D19   D(11,10,12,13)          7.6092         estimate D2E/DX2                !
 ! D20   D(11,10,12,14)        174.2404         estimate D2E/DX2                !
 ! D21   D(10,12,13,15)         84.1789         estimate D2E/DX2                !
 ! D22   D(10,12,13,16)        -99.4984         estimate D2E/DX2                !
 ! D23   D(14,12,13,15)        -82.5767         estimate D2E/DX2                !
 ! D24   D(14,12,13,16)         93.746          estimate D2E/DX2                !
 ! D25   D(12,13,16,17)       -177.9766         estimate D2E/DX2                !
 ! D26   D(12,13,16,18)          2.7214         estimate D2E/DX2                !
 ! D27   D(15,13,16,17)         -2.5665         estimate D2E/DX2                !
 ! D28   D(15,13,16,18)        178.1315         estimate D2E/DX2                !
 ! D29   D(13,16,17,19)          1.0894         estimate D2E/DX2                !
 ! D30   D(13,16,17,20)       -178.7993         estimate D2E/DX2                !
 ! D31   D(18,16,17,19)       -179.5772         estimate D2E/DX2                !
 ! D32   D(18,16,17,20)          0.5341         estimate D2E/DX2                !
 ! D33   D(13,16,18,21)        178.8462         estimate D2E/DX2                !
 ! D34   D(13,16,18,22)         -1.3571         estimate D2E/DX2                !
 ! D35   D(17,16,18,21)         -0.4734         estimate D2E/DX2                !
 ! D36   D(17,16,18,22)        179.3233         estimate D2E/DX2                !
 ! D37   D(16,17,19,23)          0.8331         estimate D2E/DX2                !
 ! D38   D(20,17,19,23)       -179.2763         estimate D2E/DX2                !
 ! D39   D(16,17,20,24)        179.9346         estimate D2E/DX2                !
 ! D40   D(16,17,20,25)         -0.2413         estimate D2E/DX2                !
 ! D41   D(19,17,20,24)          0.0433         estimate D2E/DX2                !
 ! D42   D(19,17,20,25)        179.8674         estimate D2E/DX2                !
 ! D43   D(16,18,21,25)          0.1139         estimate D2E/DX2                !
 ! D44   D(16,18,21,26)        179.8344         estimate D2E/DX2                !
 ! D45   D(22,18,21,25)       -179.6809         estimate D2E/DX2                !
 ! D46   D(22,18,21,26)          0.0396         estimate D2E/DX2                !
 ! D47   D(17,20,25,21)         -0.1339         estimate D2E/DX2                !
 ! D48   D(17,20,25,27)       -179.8228         estimate D2E/DX2                !
 ! D49   D(24,20,25,21)        179.6851         estimate D2E/DX2                !
 ! D50   D(24,20,25,27)         -0.0039         estimate D2E/DX2                !
 ! D51   D(18,21,25,20)          0.1989         estimate D2E/DX2                !
 ! D52   D(18,21,25,27)        179.8853         estimate D2E/DX2                !
 ! D53   D(26,21,25,20)       -179.5203         estimate D2E/DX2                !
 ! D54   D(26,21,25,27)          0.1661         estimate D2E/DX2                !
 --------------------------------------------------------------------------------
 Trust Radius=3.00D-01 FncErr=1.00D-07 GrdErr=1.00D-06
 Number of steps in this run=    134 maximum allowed number of steps=    162.
 GradGradGradGradGradGradGradGradGradGradGradGradGradGradGradGradGradGrad

                          Input orientation:                          
 ---------------------------------------------------------------------
 Center     Atomic      Atomic             Coordinates (Angstroms)
 Number     Number       Type             X           Y           Z
 ---------------------------------------------------------------------
      1          6           0        0.429913    0.019930    8.564206
      2          1           0        1.268274    0.710074    8.488831
      3          1           0       -0.311721    0.436572    9.249935
      4          6           0        0.397712    0.631224    6.154082
      5          1           0        0.275229    1.694851    6.373354
      6          7           0       -0.144386   -0.169929    7.239331
      7          1           0        0.789774   -0.932124    8.959955
      8          1           0       -0.122901    0.398405    5.226943
      9          1           0        1.461514    0.415266    6.027375
     10          6           0       -1.134744   -1.032499    7.033372
     11          1           0       -1.479954   -1.121118    6.009305
     12          6           0       -1.758120   -1.806217    7.999533
     13          6           0       -2.727283   -2.822867    7.590097
     14          1           0       -1.378799   -1.815159    9.020332
     15          8           0       -1.971113   -3.843219    7.303015
     16          6           0       -4.137952   -2.743676    7.590494
     17          6           0       -4.919901   -3.866263    7.191058
     18          6           0       -4.825574   -1.567098    7.965169
     19          8           0       -4.333505   -5.031285    6.826342
     20          6           0       -6.300231   -3.783544    7.166801
     21          6           0       -6.209033   -1.499372    7.937221
     22          1           0       -4.250066   -0.703517    8.283538
     23          1           0       -3.368883   -4.931502    6.907885
     24          1           0       -6.859788   -4.658485    6.856196
     25          6           0       -6.951599   -2.605950    7.536182
     26          1           0       -6.709526   -0.583952    8.232878
     27          1           0       -8.034117   -2.562144    7.513185
 ---------------------------------------------------------------------
                    Distance matrix (angstroms):
                    1          2          3          4          5
     1  C    0.000000
     2  H    1.088499   0.000000
     3  H    1.092628   1.774955   0.000000
     4  C    2.486647   2.493020   3.182058   0.000000
     5  H    2.762086   2.535975   3.194134   1.092879   0.000000
     6  N    1.456420   2.081169   2.106745   1.453782   2.098427
     7  H    1.092027   1.774186   1.780648   3.235845   3.722400
     8  H    3.403846   3.559834   4.027602   1.088499   1.775820
     9  H    2.766948   2.486568   3.678275   1.092871   1.778851
    10  C    2.428829   3.305967   2.783647   2.426839   3.140396
    11  H    3.387787   4.129657   3.780588   2.572410   3.338095
    12  C    2.905367   3.966131   2.947147   3.740912   4.363077
    13  C    4.358700   5.408685   4.383371   4.874267   5.559255
    14  H    2.616685   3.696795   2.502332   4.166074   4.697071
    15  O    4.720111   5.712466   4.986050   5.191533   6.048185
    16  C    5.426880   6.477861   5.244785   5.833136   6.376372
    17  C    6.753410   7.805164   6.632397   7.041287   7.654019
    18  C    5.522467   6.526463   5.102959   5.949401   6.260382
    19  O    7.157171   8.191886   7.207358   7.409477   8.166182
    20  C    7.855825   8.900710   7.616500   8.085680   8.595292
    21  C    6.839371   7.816396   6.344240   7.167154   7.395566
    22  H    4.743875   5.700216   4.212397   5.283745   5.466193
    23  H    6.456851   7.471947   6.606637   6.760131   7.581150
    24  H    8.828624   9.876858   8.635205   9.008068   9.565902
    25  C    7.901822   8.914587   7.502124   8.148734   8.489764
    26  H    7.172590   8.086118   6.558032   7.504057   7.578758
    27  H    8.911316   9.909277   8.464278   9.118141   9.405661
                    6          7          8          9         10
     6  N    0.000000
     7  H    2.100986   0.000000
     8  H    2.091213   4.066775   0.000000
     9  H    2.095282   3.296471   1.775203   0.000000
    10  C    1.329381   2.724989   2.516843   3.138249   0.000000
    11  H    2.049748   3.727428   2.182346   3.318590   1.084314
    12  C    2.420637   2.859757   3.901481   4.380689   1.385895
    13  C    3.719203   4.221506   4.769056   5.520292   2.459988
    14  H    2.720758   2.342244   4.568035   4.690412   2.149449
    15  O    4.102931   4.340786   5.071226   5.616483   2.944888
    16  C    4.764038   5.425830   5.619580   6.616364   3.501110
    17  C    6.039102   6.658720   6.712403   7.772265   4.731014
    18  C    4.938871   5.738024   5.785864   6.871120   3.843991
    19  O    6.430557   6.899523   7.054700   7.992841   5.124961
    20  C    7.138480   7.849469   7.707863   8.897920   5.853914
    21  C    6.247753   7.095848   6.927349   8.133304   5.175261
    22  H    4.269859   5.090166   5.252666   6.242122   3.372888
    23  H    5.760192   6.123761   6.462962   7.259198   4.495481
    24  H    8.086442   8.765122   8.579758   9.781307   6.779033
    25  C    7.236053   8.047216   7.809600   9.065579   6.046848
    26  H    6.652790   7.542504   7.306456   8.522240   5.719983
    27  H    8.248972   9.089068   8.750948  10.061790   7.083176
                   11         12         13         14         15
    11  H    0.000000
    12  C    2.123145   0.000000
    13  C    2.636415   1.463042   0.000000
    14  H    3.091635   1.089034   2.208949   0.000000
    15  O    3.053646   2.163303   1.302047   2.722690   0.000000
    16  C    3.492536   2.590317   1.412890   3.243379   2.446800
    17  C    4.556928   3.859311   2.460789   4.482485   2.951003
    18  C    3.900958   3.076952   2.473956   3.613193   3.710407
    19  O    4.909145   4.290693   2.835557   4.887468   2.686934
    20  C    5.627022   5.023349   3.723981   5.615212   4.331672
    21  C    5.120950   4.461913   3.740951   4.960243   4.884240
    22  H    3.608330   2.739781   2.700254   3.165879   4.001597
    23  H    4.346783   3.681529   2.307251   4.258458   1.815006
    24  H    6.494059   5.955642   4.581015   6.542876   4.976289
    25  C    5.871540   5.275082   4.230225   5.821009   5.137163
    26  H    5.707999   5.105370   4.613477   5.527441   5.825807
    27  H    6.877155   6.340039   5.313791   6.864600   6.200431
                   16         17         18         19         20
    16  C    0.000000
    17  C    1.425200   0.000000
    18  C    1.413344   2.427819   0.000000
    19  O    2.419778   1.354310   3.679626   0.000000
    20  C    2.436451   1.383019   2.779323   2.353886   0.000000
    21  C    2.440879   2.796568   1.385398   4.150430   2.412324
    22  H    2.157575   3.412500   1.085514   4.567270   3.864821
    23  H    2.417438   1.902782   3.815627   0.973191   3.158741
    24  H    3.407943   2.122006   3.863227   2.553816   1.084021
    25  C    2.817539   2.415636   2.404834   3.638755   1.395511
    26  H    3.419073   3.880942   2.141850   5.234748   3.397268
    27  H    3.901158   3.391583   3.389565   4.501438   2.148991
                   21         22         23         24         25
    21  C    0.000000
    22  H    2.142632   0.000000
    23  H    4.572253   4.532633   0.000000
    24  H    3.401778   4.948710   3.501946   0.000000
    25  C    1.391672   3.387635   4.317268   2.164188   0.000000
    26  H    1.084389   2.462886   5.640629   4.303446   2.152315
    27  H    2.154118   4.285671   5.267319   2.491050   1.083648
                   26         27
    26  H    0.000000
    27  H    2.487115   0.000000
 Stoichiometry    C11H13NO2
 Framework group  C1[X(C11H13NO2)]
 Deg. of freedom    75
 Full point group                 C1      NOp   1
 Largest Abelian subgroup         C1      NOp   1
 Largest concise Abelian subgroup C1      NOp   1
                         Standard orientation:                         
 ---------------------------------------------------------------------
 Center     Atomic      Atomic             Coordinates (Angstroms)
 Number     Number       Type             X           Y           Z
 ---------------------------------------------------------------------
      1          6           0        4.034313   -0.363874   -1.128691
      2          1           0        5.102755   -0.546401   -1.028972
      3          1           0        3.581810   -1.195994   -1.673348
      4          6           0        4.323126   -0.484260    1.338192
      5          1           0        4.729770   -1.497619    1.292070
      6          7           0        3.451333   -0.241764    0.200363
      7          1           0        3.884104    0.558693   -1.693343
      8          1           0        3.762868   -0.369176    2.264311
      9          1           0        5.149900    0.230430    1.332665
     10          6           0        2.168772    0.066249    0.365954
     11          1           0        1.832656    0.157513    1.392810
     12          6           0        1.240214    0.267250   -0.643047
     13          6           0       -0.096767    0.753755   -0.302036
     14          1           0        1.558893    0.276877   -1.684366
     15          8           0        0.072362    2.043334   -0.241142
     16          6           0       -1.292129    0.013925   -0.160543
     17          6           0       -2.516818    0.679099    0.137575
     18          6           0       -1.326318   -1.392995   -0.290722
     19          8           0       -2.565643    2.026132    0.269005
     20          6           0       -3.683725   -0.045014    0.301069
     21          6           0       -2.503198   -2.105031   -0.125539
     22          1           0       -0.407050   -1.919030   -0.528578
     23          1           0       -1.674322    2.385045    0.114636
     24          1           0       -4.594616    0.497045    0.528117
     25          6           0       -3.685669   -1.434626    0.172910
     26          1           0       -2.499659   -3.183968   -0.234087
     27          1           0       -4.610989   -1.983658    0.301903
 ---------------------------------------------------------------------
 Rotational constants (GHZ):      1.4373412      0.3301718      0.2904808
 Standard basis: 6-311++G(d,p) (5D, 7F)
 There are   413 symmetry adapted cartesian basis functions of A   symmetry.
 There are   399 symmetry adapted basis functions of A   symmetry.
   399 basis functions,   621 primitive gaussians,   413 cartesian basis functions
    51 alpha electrons       51 beta electrons
       nuclear repulsion energy       837.9745368977 Hartrees.
 NAtoms=   27 NActive=   27 NUniq=   27 SFac= 1.00D+00 NAtFMM=   60 NAOKFM=F Big=F
 Integral buffers will be    131072 words long.
 Raffenetti 1 integral format.
 Two-electron integral symmetry is turned on.
 Nuclear repulsion after empirical dispersion term =      837.9592918430 Hartrees.
 ------------------------------------------------------------------------------
 Polarizable Continuum Model (PCM)
 =================================
 Model                : PCM (using non-symmetric T matrix).
 Atomic radii         : UFF (Universal Force Field).
 Polarization charges : Total charges.
 Charge compensation  : None.
 Solution method      : On-the-fly selection.
 Cavity type          : Scaled VdW (van der Waals Surface) (Alpha=1.100).
 Cavity algorithm     : GePol (No added spheres)
                        Default sphere list used, NSphG=   27.
                        Lebedev-Laikov grids with approx.  5.0 points / Ang**2.
                        Smoothing algorithm: Karplus/York (Gamma=1.0000).
                        Polarization charges: spherical gaussians, with
                                              point-specific exponents (IZeta= 3).
                        Self-potential: point-specific (ISelfS= 7).
                        Self-field    : sphere-specific E.n sum rule (ISelfD= 2).
 1st derivatives      : Analytical E(r).r(x)/FMM algorithm (CHGder, D1EAlg=3).
                        Cavity 1st derivative terms included.
 Solvent              : Dichloromethane, Eps=   8.930000 Eps(inf)=   2.028346
 ------------------------------------------------------------------------------
 One-electron integrals computed using PRISM.
 NBasis=   399 RedAO= T EigKep=  2.03D-06  NBF=   399
 NBsUse=   397 1.00D-06 EigRej=  6.15D-07 NBFU=   397
 ExpMin= 3.60D-02 ExpMax= 8.59D+03 ExpMxC= 1.30D+03 IAcc=3 IRadAn=         5 AccDes= 0.00D+00
 Harris functional with IExCor= 4639 and IRadAn=       5 diagonalized for initial guess.
 HarFok:  IExCor= 4639 AccDes= 0.00D+00 IRadAn=         5 IDoV= 1 UseB2=F ITyADJ=14
 ICtDFT=  3500011 ScaDFX=  1.000000  1.000000  1.000000  1.000000
 FoFCou: FMM=F IPFlag=           0 FMFlag=      100000 FMFlg1=           0
         NFxFlg=           0 DoJE=T BraDBF=F KetDBF=T FulRan=T
         wScrn=  0.000000 ICntrl=     500 IOpCl=  0 I1Cent=   200000004 NGrid=           0
         NMat0=    1 NMatS0=      1 NMatT0=    0 NMatD0=    1 NMtDS0=    0 NMtDT0=    0
 Petite list used in FoFCou.
 Requested convergence on RMS density matrix=1.00D-08 within 128 cycles.
 Requested convergence on MAX density matrix=1.00D-06.
 Requested convergence on             energy=1.00D-06.
 No special actions if energy rises.
 Inv3:  Mode=1 IEnd=    13610700.
 Iteration    1 A*A^-1 deviation from unit magnitude is 5.11D-15 for    482.
 Iteration    1 A*A^-1 deviation from orthogonality  is 3.34D-15 for   2075     85.
 Iteration    1 A^-1*A deviation from unit magnitude is 5.33D-15 for   2128.
 Iteration    1 A^-1*A deviation from orthogonality  is 3.87D-11 for   1516   1514.
 Error on total polarization charges =  0.01384
 SCF Done:  E(RwB97XD) =  -632.115164004     A.U. after   18 cycles
            NFock= 18  Conv=0.49D-08     -V/T= 2.0042
 DoSCS=F DFT=T ScalE2(SS,OS)=  1.000000  1.000000
 ExpMin= 3.60D-02 ExpMax= 8.59D+03 ExpMxC= 1.30D+03 IAcc=3 IRadAn=         5 AccDes= 0.00D+00
 HarFok:  IExCor=  205 AccDes= 0.00D+00 IRadAn=         5 IDoV=-2 UseB2=F ITyADJ=14
 ICtDFT= 12500011 ScaDFX=  1.000000  1.000000  1.000000  1.000000
 Range of M.O.s used for correlation:    15   397
 NBasis=   399 NAE=    51 NBE=    51 NFC=    14 NFV=     0
 NROrb=    383 NOA=    37 NOB=    37 NVA=   346 NVB=   346

 **** Warning!!: The largest alpha MO coefficient is  0.15021667D+03

 Would need an additional         17529300000 words for in-memory AO integral storage.
 NEqPCM:  Using equilibrium solvation (IEInf=0, Eps=   8.9300, EpsInf=   2.0283)
 Orbital symmetries:
       Occupied  (A) (A) (A) (A) (A) (A) (A) (A) (A) (A) (A) (A)
                 (A) (A) (A) (A) (A) (A) (A) (A) (A) (A) (A) (A)
                 (A) (A) (A) (A) (A) (A) (A) (A) (A) (A) (A) (A)
                 (A) (A) (A) (A) (A) (A) (A) (A) (A) (A) (A) (A)
                 (A) (A) (A)
       Virtual   (A) (A) (A) (A) (A) (A) (A) (A) (A) (A) (A) (A)
                 (A) (A) (A) (A) (A) (A) (A) (A) (A) (A) (A) (A)
                 (A) (A) (A) (A) (A) (A) (A) (A) (A) (A) (A) (A)
                 (A) (A) (A) (A) (A) (A) (A) (A) (A) (A) (A) (A)
                 (A) (A) (A) (A) (A) (A) (A) (A) (A) (A) (A) (A)
                 (A) (A) (A) (A) (A) (A) (A) (A) (A) (A) (A) (A)
                 (A) (A) (A) (A) (A) (A) (A) (A) (A) (A) (A) (A)
                 (A) (A) (A) (A) (A) (A) (A) (A) (A) (A) (A) (A)
                 (A) (A) (A) (A) (A) (A) (A) (A) (A) (A) (A) (A)
                 (A) (A) (A) (A) (A) (A) (A) (A) (A) (A) (A) (A)
                 (A) (A) (A) (A) (A) (A) (A) (A) (A) (A) (A) (A)
                 (A) (A) (A) (A) (A) (A) (A) (A) (A) (A) (A) (A)
                 (A) (A) (A) (A) (A) (A) (A) (A) (A) (A) (A) (A)
                 (A) (A) (A) (A) (A) (A) (A) (A) (A) (A) (A) (A)
                 (A) (A) (A) (A) (A) (A) (A) (A) (A) (A) (A) (A)
                 (A) (A) (A) (A) (A) (A) (A) (A) (A) (A) (A) (A)
                 (A) (A) (A) (A) (A) (A) (A) (A) (A) (A) (A) (A)
                 (A) (A) (A) (A) (A) (A) (A) (A) (A) (A) (A) (A)
                 (A) (A) (A) (A) (A) (A) (A) (A) (A) (A) (A) (A)
                 (A) (A) (A) (A) (A) (A) (A) (A) (A) (A) (A) (A)
                 (A) (A) (A) (A) (A) (A) (A) (A) (A) (A) (A) (A)
                 (A) (A) (A) (A) (A) (A) (A) (A) (A) (A) (A) (A)
                 (A) (A) (A) (A) (A) (A) (A) (A) (A) (A) (A) (A)
                 (A) (A) (A) (A) (A) (A) (A) (A) (A) (A) (A) (A)
                 (A) (A) (A) (A) (A) (A) (A) (A) (A) (A) (A) (A)
                 (A) (A) (A) (A) (A) (A) (A) (A) (A) (A) (A) (A)
                 (A) (A) (A) (A) (A) (A) (A) (A) (A) (A) (A) (A)
                 (A) (A) (A) (A) (A) (A) (A) (A) (A) (A) (A) (A)
                 (A) (A) (A) (A) (A) (A) (A) (A) (A) (A)
     8 initial guesses have been made.
 Convergence on wavefunction:    0.000001000000000
 Iteration     1 Dimension     8 NMult     0 NNew      8
 CISAX will form     8 AO SS matrices at one time.
 Iteration     2 Dimension    12 NMult     8 NNew      4
 Iteration     3 Dimension    16 NMult    12 NNew      4
 Iteration     4 Dimension    20 NMult    16 NNew      4
 Iteration     5 Dimension    24 NMult    20 NNew      4
 Iteration     6 Dimension    28 NMult    24 NNew      4
 Iteration     7 Dimension    32 NMult    28 NNew      4
 Iteration     8 Dimension    36 NMult    32 NNew      4
 Iteration     9 Dimension    40 NMult    36 NNew      4
 Iteration    10 Dimension    44 NMult    40 NNew      4
 Iteration    11 Dimension    48 NMult    44 NNew      4
 ***********************************************************************
 Excited states from <AA,BB:AA,BB> singles matrix:
 ***********************************************************************
 
 Ground to excited state transition densities written to RWF  633
 Ground to excited state transition electric dipole moments (Au):
       state          X           Y           Z        Dip. S.      Osc.
         1        -0.0331     -0.0471      0.0324      0.0044      0.0002
 Ground to excited state transition velocity dipole moments (Au):
       state          X           Y           Z        Dip. S.      Osc.
         1         0.0026      0.0068      0.0005      0.0001      0.0004
 Ground to excited state transition magnetic dipole moments (Au):
       state          X           Y           Z
         1        -0.1269     -0.3128     -0.0180
 Ground to excited state transition velocity quadrupole moments (Au):
       state          XX          YY          ZZ          XY          XZ          YZ
         1        -0.0238      0.0084     -0.0070      0.0073     -0.0004     -0.0052
 <0|del|b> * <b|rxdel|0> + <0|del|b> * <b|delr+rdel|0>
 Rotatory Strengths (R) in cgs (10**-40 erg-esu-cm/Gauss)
       state          XX          YY          ZZ    R(velocity)    E-M Angle
         1        -9.2990     -1.5560    -10.6804     -7.1785       90.00
 1/2[<0|r|b>*<b|rxdel|0> + (<0|rxdel|b>*<b|r|0>)*]
 Rotatory Strengths (R) in cgs (10**-40 erg-esu-cm/Gauss)
       state          XX          YY          ZZ     R(length)
         1        -2.9685    -10.4241      0.4112     -4.3271
  1/2[<0|del|b>*<b|r|0> + (<0|r|b>*<b|del|0>)*] (Au)
       state          X           Y           Z        Dip. S.   Osc.(frdel)
         1        -0.0001     -0.0003      0.0000      0.0004      0.0003

 Excitation energies and oscillator strengths:
 
 Excited State   1:      Singlet-A      2.1938 eV  565.16 nm  f=0.0002  <S**2>=0.000
      48 -> 52         0.14579
      51 -> 52         0.66530
      51 -> 63         0.10138
 This state for optimization and/or second-order correction.
 Total Energy, E(TD-HF/TD-KS) =  -632.034544195    
 Copying the excited state density for this state as the 1-particle RhoCI density.
 SavETr:  write IOETrn=   770 NScale= 10 NData=  16 NLR=1 NState=    1 LETran=      28.
          IDoAtm=111111111111111111111111111
 NEqPCM:  Using equilibrium solvation (IEInf=0, Eps=   8.9300, EpsInf=   2.0283)
          Differentiating once with respect to electric field.
                with respect to dipole field.
          Differentiating once with respect to nuclear coordinates.
          There are     1 degrees of freedom in the 1st order CPHF.  IDoFFX=0 NUNeed=     1.
 LinEq1:  Iter=  0 NonCon=     1 RMS=5.58D-03 Max=9.60D-02 NDo=     1
 AX will form     1 AO Fock derivatives at one time.
 LinEq1:  Iter=  1 NonCon=     1 RMS=1.98D-03 Max=5.63D-02 NDo=     1
 LinEq1:  Iter=  2 NonCon=     1 RMS=1.53D-03 Max=5.85D-02 NDo=     1
 LinEq1:  Iter=  3 NonCon=     1 RMS=6.92D-04 Max=3.76D-02 NDo=     1
 LinEq1:  Iter=  4 NonCon=     1 RMS=4.21D-04 Max=1.07D-02 NDo=     1
 LinEq1:  Iter=  5 NonCon=     1 RMS=2.07D-04 Max=9.83D-03 NDo=     1
 LinEq1:  Iter=  6 NonCon=     1 RMS=1.07D-04 Max=4.25D-03 NDo=     1
 LinEq1:  Iter=  7 NonCon=     1 RMS=4.89D-05 Max=2.43D-03 NDo=     1
 LinEq1:  Iter=  8 NonCon=     1 RMS=2.42D-05 Max=1.34D-03 NDo=     1
 LinEq1:  Iter=  9 NonCon=     1 RMS=1.22D-05 Max=6.40D-04 NDo=     1
 LinEq1:  Iter= 10 NonCon=     1 RMS=5.11D-06 Max=1.92D-04 NDo=     1
 LinEq1:  Iter= 11 NonCon=     1 RMS=2.82D-06 Max=1.05D-04 NDo=     1
 LinEq1:  Iter= 12 NonCon=     1 RMS=1.28D-06 Max=5.84D-05 NDo=     1
 LinEq1:  Iter= 13 NonCon=     1 RMS=6.86D-07 Max=2.70D-05 NDo=     1
 LinEq1:  Iter= 14 NonCon=     1 RMS=2.90D-07 Max=9.04D-06 NDo=     1
 LinEq1:  Iter= 15 NonCon=     1 RMS=1.15D-07 Max=4.67D-06 NDo=     1
 LinEq1:  Iter= 16 NonCon=     1 RMS=4.30D-08 Max=1.63D-06 NDo=     1
 LinEq1:  Iter= 17 NonCon=     1 RMS=1.54D-08 Max=6.00D-07 NDo=     1
 LinEq1:  Iter= 18 NonCon=     1 RMS=7.31D-09 Max=2.53D-07 NDo=     1
 LinEq1:  Iter= 19 NonCon=     1 RMS=2.16D-09 Max=5.73D-08 NDo=     1
 LinEq1:  Iter= 20 NonCon=     1 RMS=9.94D-10 Max=2.13D-08 NDo=     1
 LinEq1:  Iter= 21 NonCon=     1 RMS=3.15D-10 Max=7.20D-09 NDo=     1
 LinEq1:  Iter= 22 NonCon=     1 RMS=1.01D-10 Max=1.93D-09 NDo=     1
 LinEq1:  Iter= 23 NonCon=     1 RMS=5.02D-11 Max=2.56D-09 NDo=     1
 LinEq1:  Iter= 24 NonCon=     0 RMS=2.25D-11 Max=5.21D-10 NDo=     1
 Linear equations converged to 1.000D-10 1.000D-09 after    24 iterations.
 End of Minotr F.D. properties file   721 does not exist.
 End of Minotr F.D. properties file   722 does not exist.
 End of Minotr F.D. properties file   788 does not exist.

 **********************************************************************

            Population analysis using the SCF density.

 **********************************************************************

 Orbital symmetries:
       Occupied  (A) (A) (A) (A) (A) (A) (A) (A) (A) (A) (A) (A)
                 (A) (A) (A) (A) (A) (A) (A) (A) (A) (A) (A) (A)
                 (A) (A) (A) (A) (A) (A) (A) (A) (A) (A) (A) (A)
                 (A) (A) (A) (A) (A) (A) (A) (A) (A) (A) (A) (A)
                 (A) (A) (A)
       Virtual   (A) (A) (A) (A) (A) (A) (A) (A) (A) (A) (A) (A)
                 (A) (A) (A) (A) (A) (A) (A) (A) (A) (A) (A) (A)
                 (A) (A) (A) (A) (A) (A) (A) (A) (A) (A) (A) (A)
                 (A) (A) (A) (A) (A) (A) (A) (A) (A) (A) (A) (A)
                 (A) (A) (A) (A) (A) (A) (A) (A) (A) (A) (A) (A)
                 (A) (A) (A) (A) (A) (A) (A) (A) (A) (A) (A) (A)
                 (A) (A) (A) (A) (A) (A) (A) (A) (A) (A) (A) (A)
                 (A) (A) (A) (A) (A) (A) (A) (A) (A) (A) (A) (A)
                 (A) (A) (A) (A) (A) (A) (A) (A) (A) (A) (A) (A)
                 (A) (A) (A) (A) (A) (A) (A) (A) (A) (A) (A) (A)
                 (A) (A) (A) (A) (A) (A) (A) (A) (A) (A) (A) (A)
                 (A) (A) (A) (A) (A) (A) (A) (A) (A) (A) (A) (A)
                 (A) (A) (A) (A) (A) (A) (A) (A) (A) (A) (A) (A)
                 (A) (A) (A) (A) (A) (A) (A) (A) (A) (A) (A) (A)
                 (A) (A) (A) (A) (A) (A) (A) (A) (A) (A) (A) (A)
                 (A) (A) (A) (A) (A) (A) (A) (A) (A) (A) (A) (A)
                 (A) (A) (A) (A) (A) (A) (A) (A) (A) (A) (A) (A)
                 (A) (A) (A) (A) (A) (A) (A) (A) (A) (A) (A) (A)
                 (A) (A) (A) (A) (A) (A) (A) (A) (A) (A) (A) (A)
                 (A) (A) (A) (A) (A) (A) (A) (A) (A) (A) (A) (A)
                 (A) (A) (A) (A) (A) (A) (A) (A) (A) (A) (A) (A)
                 (A) (A) (A) (A) (A) (A) (A) (A) (A) (A) (A) (A)
                 (A) (A) (A) (A) (A) (A) (A) (A) (A) (A) (A) (A)
                 (A) (A) (A) (A) (A) (A) (A) (A) (A) (A) (A) (A)
                 (A) (A) (A) (A) (A) (A) (A) (A) (A) (A) (A) (A)
                 (A) (A) (A) (A) (A) (A) (A) (A) (A) (A) (A) (A)
                 (A) (A) (A) (A) (A) (A) (A) (A) (A) (A) (A) (A)
                 (A) (A) (A) (A) (A) (A) (A) (A) (A) (A) (A) (A)
                 (A) (A) (A) (A) (A) (A) (A) (A) (A) (A)
 The electronic state is 1-A.
 Alpha  occ. eigenvalues --  -19.28367 -19.24314 -14.45592 -10.39033 -10.37861
 Alpha  occ. eigenvalues --  -10.32267 -10.31684 -10.31635 -10.31517 -10.31307
 Alpha  occ. eigenvalues --  -10.31177 -10.29925 -10.29821 -10.26463  -1.18037
 Alpha  occ. eigenvalues --   -1.12256  -1.06084  -0.97935  -0.89525  -0.86332
 Alpha  occ. eigenvalues --   -0.86125  -0.82663  -0.78876  -0.75875  -0.71501
 Alpha  occ. eigenvalues --   -0.69139  -0.65409  -0.62758  -0.61337  -0.59432
 Alpha  occ. eigenvalues --   -0.57781  -0.56651  -0.55948  -0.54262  -0.53414
 Alpha  occ. eigenvalues --   -0.52767  -0.50631  -0.49348  -0.49199  -0.49041
 Alpha  occ. eigenvalues --   -0.47689  -0.47023  -0.46866  -0.44556  -0.44260
 Alpha  occ. eigenvalues --   -0.43563  -0.40485  -0.35712  -0.35261  -0.32179
 Alpha  occ. eigenvalues --   -0.25691
 Alpha virt. eigenvalues --   -0.02298   0.03943   0.04642   0.04971   0.05518
 Alpha virt. eigenvalues --    0.05730   0.06095   0.06840   0.07793   0.07991
 Alpha virt. eigenvalues --    0.08179   0.09012   0.09344   0.09524   0.09681
 Alpha virt. eigenvalues --    0.10240   0.11412   0.12043   0.12172   0.13403
 Alpha virt. eigenvalues --    0.14012   0.14498   0.15175   0.15756   0.16019
 Alpha virt. eigenvalues --    0.16175   0.16523   0.16680   0.17053   0.17314
 Alpha virt. eigenvalues --    0.17547   0.18433   0.18508   0.18696   0.19028
 Alpha virt. eigenvalues --    0.19332   0.19591   0.19775   0.20392   0.20711
 Alpha virt. eigenvalues --    0.20859   0.21549   0.21873   0.22369   0.22880
 Alpha virt. eigenvalues --    0.23767   0.23988   0.24300   0.24608   0.24800
 Alpha virt. eigenvalues --    0.25231   0.26010   0.26655   0.27466   0.27636
 Alpha virt. eigenvalues --    0.28548   0.28628   0.29024   0.29490   0.29636
 Alpha virt. eigenvalues --    0.30499   0.31217   0.31241   0.32100   0.32510
 Alpha virt. eigenvalues --    0.32581   0.33163   0.33722   0.34003   0.34782
 Alpha virt. eigenvalues --    0.35418   0.35857   0.36477   0.36707   0.36947
 Alpha virt. eigenvalues --    0.37787   0.38361   0.38595   0.38758   0.39275
 Alpha virt. eigenvalues --    0.39707   0.40110   0.41229   0.41918   0.42331
 Alpha virt. eigenvalues --    0.43064   0.44249   0.44861   0.45748   0.46701
 Alpha virt. eigenvalues --    0.47696   0.49669   0.51063   0.51131   0.52088
 Alpha virt. eigenvalues --    0.53664   0.54337   0.54670   0.57706   0.58412
 Alpha virt. eigenvalues --    0.59136   0.60358   0.60839   0.61448   0.62654
 Alpha virt. eigenvalues --    0.63686   0.64994   0.65181   0.65900   0.67318
 Alpha virt. eigenvalues --    0.67333   0.68458   0.68568   0.69243   0.70759
 Alpha virt. eigenvalues --    0.71478   0.71704   0.72250   0.73149   0.73603
 Alpha virt. eigenvalues --    0.74431   0.75156   0.75526   0.76688   0.77241
 Alpha virt. eigenvalues --    0.78633   0.79309   0.80170   0.81028   0.81829
 Alpha virt. eigenvalues --    0.82808   0.83302   0.84449   0.85740   0.87001
 Alpha virt. eigenvalues --    0.89638   0.89908   0.91701   0.92650   0.93121
 Alpha virt. eigenvalues --    0.94547   0.96474   0.96528   0.97020   0.97998
 Alpha virt. eigenvalues --    0.99219   1.00177   1.01157   1.02973   1.04834
 Alpha virt. eigenvalues --    1.05797   1.07255   1.07960   1.08148   1.08932
 Alpha virt. eigenvalues --    1.10449   1.12350   1.14022   1.15128   1.17031
 Alpha virt. eigenvalues --    1.17732   1.19158   1.20076   1.20467   1.22517
 Alpha virt. eigenvalues --    1.23956   1.25885   1.27862   1.29105   1.30361
 Alpha virt. eigenvalues --    1.32741   1.35047   1.36040   1.38262   1.39348
 Alpha virt. eigenvalues --    1.42233   1.46568   1.46923   1.49774   1.52042
 Alpha virt. eigenvalues --    1.52993   1.54081   1.55107   1.56058   1.58185
 Alpha virt. eigenvalues --    1.58986   1.60715   1.61647   1.62818   1.63758
 Alpha virt. eigenvalues --    1.64379   1.64583   1.65348   1.65678   1.68490
 Alpha virt. eigenvalues --    1.69252   1.71174   1.73130   1.74030   1.74527
 Alpha virt. eigenvalues --    1.75481   1.76969   1.78603   1.79698   1.80380
 Alpha virt. eigenvalues --    1.81797   1.82311   1.84046   1.85457   1.86665
 Alpha virt. eigenvalues --    1.88297   1.90283   1.91155   1.92470   1.96289
 Alpha virt. eigenvalues --    1.96846   1.98597   1.99267   2.01035   2.01474
 Alpha virt. eigenvalues --    2.02939   2.03786   2.05280   2.06584   2.07899
 Alpha virt. eigenvalues --    2.07983   2.10114   2.11906   2.12382   2.12990
 Alpha virt. eigenvalues --    2.15679   2.16999   2.21556   2.23584   2.24185
 Alpha virt. eigenvalues --    2.27096   2.27307   2.30198   2.31992   2.34794
 Alpha virt. eigenvalues --    2.37372   2.39201   2.41479   2.44960   2.47053
 Alpha virt. eigenvalues --    2.51486   2.52837   2.54284   2.55706   2.55933
 Alpha virt. eigenvalues --    2.58177   2.59053   2.61058   2.61681   2.64176
 Alpha virt. eigenvalues --    2.66974   2.67269   2.69298   2.70908   2.73477
 Alpha virt. eigenvalues --    2.74764   2.75211   2.77086   2.78891   2.79894
 Alpha virt. eigenvalues --    2.80683   2.81587   2.82417   2.82958   2.83693
 Alpha virt. eigenvalues --    2.84789   2.86086   2.86625   2.88283   2.90086
 Alpha virt. eigenvalues --    2.92771   2.94050   2.95472   2.97990   2.99768
 Alpha virt. eigenvalues --    3.02318   3.03631   3.05229   3.08867   3.10374
 Alpha virt. eigenvalues --    3.14878   3.16609   3.17117   3.17400   3.19041
 Alpha virt. eigenvalues --    3.20246   3.27287   3.28013   3.29847   3.32467
 Alpha virt. eigenvalues --    3.35501   3.37767   3.42713   3.47316   3.48086
 Alpha virt. eigenvalues --    3.56587   3.58082   3.62526   3.66523   3.68805
 Alpha virt. eigenvalues --    3.72692   3.75356   3.76940   3.84390   3.84779
 Alpha virt. eigenvalues --    3.88534   3.91129   3.96155   3.96881   4.02076
 Alpha virt. eigenvalues --    4.11983   4.13134   4.14179   4.17662   4.25795
 Alpha virt. eigenvalues --    4.27562   4.35825   4.52366   4.92325   5.00213
 Alpha virt. eigenvalues --    5.11824   5.18659   5.19146   5.42501   5.56212
 Alpha virt. eigenvalues --    5.81734   5.89617  23.69837  23.96587  24.01987
 Alpha virt. eigenvalues --   24.02863  24.07682  24.09159  24.12322  24.15673
 Alpha virt. eigenvalues --   24.22191  24.27325  24.30973  35.72422  50.09197
 Alpha virt. eigenvalues --   50.12367
          Condensed to atoms (all electrons):
               1          2          3          4          5          6
     1  C    5.163180   0.390287   0.389845  -0.062895   0.003838   0.226206
     2  H    0.390287   0.479008  -0.026026   0.006754  -0.005727  -0.052193
     3  H    0.389845  -0.026026   0.542918  -0.006676   0.001038  -0.062998
     4  C   -0.062895   0.006754  -0.006676   5.159606   0.409017   0.237426
     5  H    0.003838  -0.005727   0.001038   0.409017   0.567049  -0.057482
     6  N    0.226206  -0.052193  -0.062998   0.237426  -0.057482   6.895549
     7  H    0.433357  -0.012621  -0.048075   0.005681   0.001033  -0.046323
     8  H   -0.004340   0.003584  -0.002240   0.393380  -0.031480  -0.095322
     9  H    0.000014  -0.003893   0.002147   0.430451  -0.065456  -0.056272
    10  C   -0.292984   0.031207   0.006733  -0.057772  -0.031713   0.298520
    11  H    0.009388  -0.000269   0.000639  -0.024973   0.007162  -0.062589
    12  C    0.315152   0.012468  -0.001825  -0.167926   0.012096  -0.342169
    13  C   -0.046189  -0.012601   0.022405  -0.018434   0.009258  -0.004090
    14  H    0.021197  -0.000580  -0.003283  -0.009752   0.002723  -0.035951
    15  O   -0.003414  -0.000236  -0.000359  -0.001950  -0.000020  -0.000670
    16  C   -0.121507  -0.007813   0.012036   0.026824   0.004301  -0.049482
    17  C   -0.004875  -0.000127  -0.000972   0.003087   0.000757  -0.016477
    18  C    0.016230  -0.000858  -0.003461   0.017233  -0.000840   0.045556
    19  O   -0.000085  -0.000006   0.000043  -0.000166   0.000002  -0.000194
    20  C    0.001255   0.000020  -0.000996   0.000985   0.000114  -0.004561
    21  C    0.008141   0.000659   0.002110  -0.001943  -0.000508   0.025316
    22  H    0.002461   0.000244  -0.004256   0.001322  -0.000458   0.005905
    23  H   -0.000832  -0.000083   0.000026   0.000177  -0.000012   0.000666
    24  H   -0.000031  -0.000001   0.000000  -0.000011   0.000000   0.000000
    25  C    0.000407   0.000008   0.000126   0.000870   0.000024  -0.000064
    26  H   -0.000477  -0.000034   0.000190  -0.000104   0.000007  -0.000066
    27  H   -0.000004  -0.000001  -0.000002   0.000022   0.000001   0.000024
               7          8          9         10         11         12
     1  C    0.433357  -0.004340   0.000014  -0.292984   0.009388   0.315152
     2  H   -0.012621   0.003584  -0.003893   0.031207  -0.000269   0.012468
     3  H   -0.048075  -0.002240   0.002147   0.006733   0.000639  -0.001825
     4  C    0.005681   0.393380   0.430451  -0.057772  -0.024973  -0.167926
     5  H    0.001033  -0.031480  -0.065456  -0.031713   0.007162   0.012096
     6  N   -0.046323  -0.095322  -0.056272   0.298520  -0.062589  -0.342169
     7  H    0.521970  -0.000991  -0.000440  -0.006189  -0.003871   0.024001
     8  H   -0.000991   0.542645  -0.021527   0.091379  -0.009351  -0.009156
     9  H   -0.000440  -0.021527   0.559257  -0.008773  -0.001645  -0.005734
    10  C   -0.006189   0.091379  -0.008773   8.128515   0.229616  -1.700801
    11  H   -0.003871  -0.009351  -0.001645   0.229616   0.504992   0.181679
    12  C    0.024001  -0.009156  -0.005734  -1.700801   0.181679  15.140572
    13  C   -0.046998  -0.002419  -0.007029  -0.891651   0.016817   2.278603
    14  H   -0.007297  -0.002384  -0.001856  -0.217845   0.020600   0.673816
    15  O   -0.000713   0.001487   0.000011  -0.018772  -0.005998  -0.670932
    16  C   -0.008260  -0.001501   0.000412   0.727944   0.002345  -5.706521
    17  C   -0.001969  -0.000526  -0.000173  -0.054658   0.024950  -1.133106
    18  C    0.007859   0.000324  -0.000380   0.354493  -0.053786  -2.185772
    19  O   -0.000085   0.000066  -0.000004  -0.004971  -0.001239  -0.030802
    20  C   -0.000093  -0.000414   0.000014  -0.064775   0.008135  -0.870547
    21  C    0.000382   0.001665  -0.000361   0.097140  -0.023550   0.805366
    22  H    0.001128   0.000174   0.000185  -0.008602  -0.002536  -0.061908
    23  H    0.000236   0.000056   0.000031   0.006968  -0.001809  -0.008018
    24  H    0.000002   0.000010  -0.000001   0.000153  -0.000069  -0.004911
    25  C    0.000030  -0.000172   0.000017   0.024855   0.000887  -0.218942
    26  H    0.000010   0.000052  -0.000008   0.003807  -0.000177  -0.000231
    27  H    0.000001  -0.000007   0.000001   0.000123   0.000018  -0.003399
              13         14         15         16         17         18
     1  C   -0.046189   0.021197  -0.003414  -0.121507  -0.004875   0.016230
     2  H   -0.012601  -0.000580  -0.000236  -0.007813  -0.000127  -0.000858
     3  H    0.022405  -0.003283  -0.000359   0.012036  -0.000972  -0.003461
     4  C   -0.018434  -0.009752  -0.001950   0.026824   0.003087   0.017233
     5  H    0.009258   0.002723  -0.000020   0.004301   0.000757  -0.000840
     6  N   -0.004090  -0.035951  -0.000670  -0.049482  -0.016477   0.045556
     7  H   -0.046998  -0.007297  -0.000713  -0.008260  -0.001969   0.007859
     8  H   -0.002419  -0.002384   0.001487  -0.001501  -0.000526   0.000324
     9  H   -0.007029  -0.001856   0.000011   0.000412  -0.000173  -0.000380
    10  C   -0.891651  -0.217845  -0.018772   0.727944  -0.054658   0.354493
    11  H    0.016817   0.020600  -0.005998   0.002345   0.024950  -0.053786
    12  C    2.278603   0.673816  -0.670932  -5.706521  -1.133106  -2.185772
    13  C   14.128236   0.013074   0.792876  -2.524576  -1.021256  -3.589323
    14  H    0.013074   0.506701   0.007746  -0.039652   0.029239  -0.155230
    15  O    0.792876   0.007746   8.175249   0.045199   0.135635  -0.117543
    16  C   -2.524576  -0.039652   0.045199  15.448212   0.076718  -0.474454
    17  C   -1.021256   0.029239   0.135635   0.076718  15.917328  -4.936944
    18  C   -3.589323  -0.155230  -0.117543  -0.474454  -4.936944  15.678149
    19  O   -0.095252  -0.000221  -0.028868   0.128535   0.335001   0.040223
    20  C   -3.747101   0.000732  -0.068899  -1.263156  -2.482378   3.382959
    21  C    1.580627  -0.027561  -0.007448  -1.410061   0.796104  -2.656829
    22  H   -0.077614  -0.007068  -0.001785  -0.092438  -0.014433   0.638712
    23  H    0.004776  -0.001798   0.087876  -0.171072   0.096443  -0.003933
    24  H   -0.029191  -0.000223   0.000224  -0.074644  -0.137029   0.044387
    25  C   -0.849555  -0.002614  -0.004861   0.213927  -1.574491   0.686601
    26  H    0.014072  -0.000306   0.000338   0.020735   0.055137  -0.147389
    27  H    0.003067   0.000029  -0.000004   0.069043   0.004174  -0.047376
              19         20         21         22         23         24
     1  C   -0.000085   0.001255   0.008141   0.002461  -0.000832  -0.000031
     2  H   -0.000006   0.000020   0.000659   0.000244  -0.000083  -0.000001
     3  H    0.000043  -0.000996   0.002110  -0.004256   0.000026   0.000000
     4  C   -0.000166   0.000985  -0.001943   0.001322   0.000177  -0.000011
     5  H    0.000002   0.000114  -0.000508  -0.000458  -0.000012   0.000000
     6  N   -0.000194  -0.004561   0.025316   0.005905   0.000666   0.000000
     7  H   -0.000085  -0.000093   0.000382   0.001128   0.000236   0.000002
     8  H    0.000066  -0.000414   0.001665   0.000174   0.000056   0.000010
     9  H   -0.000004   0.000014  -0.000361   0.000185   0.000031  -0.000001
    10  C   -0.004971  -0.064775   0.097140  -0.008602   0.006968   0.000153
    11  H   -0.001239   0.008135  -0.023550  -0.002536  -0.001809  -0.000069
    12  C   -0.030802  -0.870547   0.805366  -0.061908  -0.008018  -0.004911
    13  C   -0.095252  -3.747101   1.580627  -0.077614   0.004776  -0.029191
    14  H   -0.000221   0.000732  -0.027561  -0.007068  -0.001798  -0.000223
    15  O   -0.028868  -0.068899  -0.007448  -0.001785   0.087876   0.000224
    16  C    0.128535  -1.263156  -1.410061  -0.092438  -0.171072  -0.074644
    17  C    0.335001  -2.482378   0.796104  -0.014433   0.096443  -0.137029
    18  C    0.040223   3.382959  -2.656829   0.638712  -0.003933   0.044387
    19  O    8.065029  -0.372865   0.005023  -0.000736   0.247522  -0.024501
    20  C   -0.372865  11.586181  -1.766742   0.106930   0.052364   0.571264
    21  C    0.005023  -1.766742   8.919716  -0.154525   0.010841  -0.014054
    22  H   -0.000736   0.106930  -0.154525   0.445001  -0.000398   0.001295
    23  H    0.247522   0.052364   0.010841  -0.000398   0.362365   0.002193
    24  H   -0.024501   0.571264  -0.014054   0.001295   0.002193   0.435437
    25  C    0.018449   1.349302  -0.011984   0.007281  -0.009418  -0.020008
    26  H   -0.000113  -0.013008   0.452191  -0.009964   0.000493   0.000812
    27  H    0.001226  -0.089735  -0.040215  -0.000246  -0.000285  -0.008180
              25         26         27
     1  C    0.000407  -0.000477  -0.000004
     2  H    0.000008  -0.000034  -0.000001
     3  H    0.000126   0.000190  -0.000002
     4  C    0.000870  -0.000104   0.000022
     5  H    0.000024   0.000007   0.000001
     6  N   -0.000064  -0.000066   0.000024
     7  H    0.000030   0.000010   0.000001
     8  H   -0.000172   0.000052  -0.000007
     9  H    0.000017  -0.000008   0.000001
    10  C    0.024855   0.003807   0.000123
    11  H    0.000887  -0.000177   0.000018
    12  C   -0.218942  -0.000231  -0.003399
    13  C   -0.849555   0.014072   0.003067
    14  H   -0.002614  -0.000306   0.000029
    15  O   -0.004861   0.000338  -0.000004
    16  C    0.213927   0.020735   0.069043
    17  C   -1.574491   0.055137   0.004174
    18  C    0.686601  -0.147389  -0.047376
    19  O    0.018449  -0.000113   0.001226
    20  C    1.349302  -0.013008  -0.089735
    21  C   -0.011984   0.452191  -0.040215
    22  H    0.007281  -0.009964  -0.000246
    23  H   -0.009418   0.000493  -0.000285
    24  H   -0.020008   0.000812  -0.008180
    25  C    6.351113  -0.055606   0.439117
    26  H   -0.055606   0.431927  -0.006276
    27  H    0.439117  -0.006276   0.429408
 Mulliken charges:
               1
     1  C   -0.443325
     2  H    0.198829
     3  H    0.180913
     4  C   -0.340231
     5  H    0.175277
     6  N    0.151735
     7  H    0.188236
     8  H    0.147008
     9  H    0.181016
    10  C   -0.641946
    11  H    0.184633
    12  C   -0.321051
    13  C    0.099468
    14  H    0.237764
    15  O   -0.314168
    16  C    1.168905
    17  C   -0.095158
    18  C   -0.538609
    19  O   -0.281013
    20  C   -0.314982
    21  C   -0.589497
    22  H    0.226331
    23  H    0.324623
    24  H    0.257078
    25  C   -0.345299
    26  H    0.253988
    27  H    0.249475
 Sum of Mulliken charges =   0.00000
 Mulliken charges with hydrogens summed into heavy atoms:
               1
     1  C    0.124653
     4  C    0.163070
     6  N    0.151735
    10  C   -0.457312
    12  C   -0.083286
    13  C    0.099468
    15  O   -0.314168
    16  C    1.168905
    17  C   -0.095158
    18  C   -0.312278
    19  O    0.043610
    20  C   -0.057904
    21  C   -0.335509
    25  C   -0.095825
 Electronic spatial extent (au):  <R**2>=           3802.7655
 Charge=              0.0000 electrons
 Dipole moment (field-independent basis, Debye):
    X=              2.8761    Y=             -5.4094    Z=              0.6073  Tot=              6.1565
 Quadrupole moment (field-independent basis, Debye-Ang):
   XX=            -58.7564   YY=            -89.1593   ZZ=            -81.4215
   XY=              4.4459   XZ=              0.7926   YZ=              0.4538
 Traceless Quadrupole moment (field-independent basis, Debye-Ang):
   XX=             17.6894   YY=            -12.7136   ZZ=             -4.9758
   XY=              4.4459   XZ=              0.7926   YZ=              0.4538
 Octapole moment (field-independent basis, Debye-Ang**2):
  XXX=             55.6020  YYY=            -25.1732  ZZZ=              3.5348  XYY=             -4.8764
  XXY=            -37.9963  XXZ=             10.5248  XZZ=             23.5792  YZZ=              6.4031
  YYZ=             -0.5269  XYZ=              1.9238
 Hexadecapole moment (field-independent basis, Debye-Ang**3):
 XXXX=          -3346.5166 YYYY=           -785.5010 ZZZZ=           -298.5872 XXXY=             51.3347
 XXXZ=            -26.7132 YYYX=             29.3302 YYYZ=              8.5094 ZZZX=             10.1020
 ZZZY=             -2.7120 XXYY=           -791.8611 XXZZ=           -705.4358 YYZZ=           -194.2213
 XXYZ=            -12.4518 YYXZ=              5.7430 ZZXY=            -16.3290
 N-N= 8.379592918430D+02 E-N=-3.149834284748D+03  KE= 6.294888307704D+02
 D1PCM: PCM CHGder 1st derivatives, ID1Alg=3 FixD1E=F DoIter=F DoCFld=F I1PDM=6.
 Calling FoFJK, ICntrl=  10005127 FMM=F ISym2X=0 I1Cent= 0 IOpClX= 0 NMat=1 NMatS=1 NMatT=0.
 ***** Axes restored to original set *****
 -------------------------------------------------------------------
 Center     Atomic                   Forces (Hartrees/Bohr)
 Number     Number              X              Y              Z
 -------------------------------------------------------------------
      1        6           0.001361845    0.000730275    0.003481910
      2        1          -0.000635612   -0.000485672   -0.000288784
      3        1           0.000255768   -0.000049638   -0.000971933
      4        6           0.000755285    0.001466213   -0.003732242
      5        1          -0.000148808   -0.001185806    0.000962835
      6        7          -0.009802980   -0.008522000   -0.000771658
      7        1          -0.000032877    0.000445131   -0.000591241
      8        1          -0.000021419   -0.000063579    0.000321775
      9        1          -0.000871494   -0.000304614    0.001160859
     10        6           0.010095873    0.010857217   -0.004182437
     11        1           0.000438766    0.001037586   -0.000350533
     12        6          -0.006373750   -0.000989424    0.005422402
     13        6           0.013163189    0.009047925    0.003244923
     14        1          -0.000326063    0.000350611    0.000173544
     15        8          -0.003188206   -0.011728617   -0.003370127
     16        6          -0.005553577   -0.001976666   -0.000819829
     17        6          -0.001976684    0.006517010    0.002082444
     18        6           0.003052345   -0.000973254   -0.000107668
     19        8           0.000066913   -0.005276893   -0.001645033
     20        6           0.000764382   -0.001346146   -0.000397556
     21        6          -0.002563477   -0.000743215   -0.000246449
     22        1           0.000657715   -0.000092739   -0.000216117
     23        1           0.002979319    0.001938566    0.000540206
     24        1          -0.000856469   -0.000116716   -0.000101833
     25        6          -0.001123962    0.001492120    0.000487276
     26        1          -0.000001208    0.000039694   -0.000037076
     27        1          -0.000114813   -0.000067370   -0.000047658
 -------------------------------------------------------------------
 Cartesian Forces:  Max     0.013163189 RMS     0.003679707

 GradGradGradGradGradGradGradGradGradGradGradGradGradGradGradGradGradGrad
 Berny optimization.
 FormGI is forming the generalized inverse of G from B-inverse, IUseBI=4.
 GSVD:  received Info=                   1 from GESDD.
 Internal  Forces:  Max     0.014464263 RMS     0.002398561
 Search for a local minimum.
 Step number   1 out of a maximum of  134
 All quantities printed in internal units (Hartrees-Bohrs-Radians)
 Mixed Optimization -- RFO/linear search
 Second derivative matrix not updated -- first step.
 ITU=  0
     Eigenvalues ---    0.00945   0.00980   0.01255   0.01403   0.01671
     Eigenvalues ---    0.01846   0.01882   0.01918   0.01923   0.02060
     Eigenvalues ---    0.02101   0.02172   0.02180   0.02209   0.02239
     Eigenvalues ---    0.02246   0.02275   0.02296   0.02447   0.02626
     Eigenvalues ---    0.07443   0.07540   0.07575   0.07650   0.15747
     Eigenvalues ---    0.16000   0.16000   0.16000   0.16000   0.16000
     Eigenvalues ---    0.16000   0.16000   0.16000   0.16000   0.16000
     Eigenvalues ---    0.16000   0.16000   0.22000   0.22000   0.22060
     Eigenvalues ---    0.22485   0.24465   0.24966   0.24998   0.24998
     Eigenvalues ---    0.24999   0.25000   0.25000   0.34482   0.34483
     Eigenvalues ---    0.34511   0.34579   0.34925   0.34987   0.34987
     Eigenvalues ---    0.35336   0.35469   0.35478   0.35513   0.35557
     Eigenvalues ---    0.36586   0.37416   0.37754   0.39855   0.41409
     Eigenvalues ---    0.43549   0.44952   0.45408   0.47202   0.48040
     Eigenvalues ---    0.48363   0.52730   0.54115   0.59652   0.66628
 RFO step:  Lambda=-2.32136147D-03 EMin= 9.45450366D-03
 Linear search not attempted -- first point.
 Iteration  1 RMS(Cart)=  0.04972827 RMS(Int)=  0.00061341
 Iteration  2 RMS(Cart)=  0.00111351 RMS(Int)=  0.00006546
 Iteration  3 RMS(Cart)=  0.00000024 RMS(Int)=  0.00006546
 Variable       Old X    -DE/DX   Delta X   Delta X   Delta X     New X
                                 (Linear)    (Quad)   (Total)
    R1        2.05696  -0.00078   0.00000  -0.00220  -0.00220   2.05476
    R2        2.06477  -0.00081   0.00000  -0.00232  -0.00232   2.06245
    R3        2.75224   0.00193   0.00000   0.00512   0.00512   2.75736
    R4        2.06363  -0.00062   0.00000  -0.00177  -0.00177   2.06186
    R5        2.06524  -0.00095   0.00000  -0.00273  -0.00273   2.06252
    R6        2.74725   0.00081   0.00000   0.00215   0.00215   2.74939
    R7        2.05696  -0.00025   0.00000  -0.00070  -0.00070   2.05627
    R8        2.06523  -0.00092   0.00000  -0.00266  -0.00266   2.06257
    R9        2.51217  -0.01205   0.00000  -0.02013  -0.02013   2.49204
   R10        2.04906   0.00011   0.00000   0.00030   0.00030   2.04936
   R11        2.61896   0.00630   0.00000   0.01306   0.01306   2.63202
   R12        2.76475  -0.00107   0.00000  -0.00290  -0.00290   2.76185
   R13        2.05798   0.00005   0.00000   0.00013   0.00013   2.05811
   R14        2.46051   0.00808   0.00000   0.01209   0.01209   2.47260
   R15        2.66998   0.00463   0.00000   0.01057   0.01057   2.68055
   R16        2.69324  -0.00259   0.00000  -0.00650  -0.00650   2.68674
   R17        2.67083  -0.00171   0.00000  -0.00414  -0.00414   2.66669
   R18        2.55927   0.00449   0.00000   0.00826   0.00826   2.56753
   R19        2.61353   0.00087   0.00000   0.00171   0.00171   2.61524
   R20        2.61802   0.00299   0.00000   0.00625   0.00625   2.62427
   R21        2.05132   0.00021   0.00000   0.00060   0.00060   2.05192
   R22        1.83907   0.00320   0.00000   0.00604   0.00604   1.84510
   R23        2.04850   0.00056   0.00000   0.00158   0.00158   2.05008
   R24        2.63713   0.00143   0.00000   0.00328   0.00328   2.64042
   R25        2.62988  -0.00002   0.00000   0.00026   0.00026   2.63014
   R26        2.04920   0.00002   0.00000   0.00007   0.00007   2.04927
   R27        2.04780   0.00011   0.00000   0.00032   0.00032   2.04811
    A1        1.90125   0.00036   0.00000   0.00138   0.00137   1.90262
    A2        1.90008  -0.00042   0.00000  -0.00322  -0.00323   1.89685
    A3        1.90081   0.00022   0.00000   0.00097   0.00097   1.90178
    A4        1.93154  -0.00061   0.00000  -0.00355  -0.00355   1.92798
    A5        1.90570   0.00064   0.00000   0.00512   0.00512   1.91082
    A6        1.92406  -0.00018   0.00000  -0.00065  -0.00065   1.92341
    A7        1.92278  -0.00152   0.00000  -0.01025  -0.01028   1.91250
    A8        1.90229   0.00082   0.00000   0.00632   0.00633   1.90862
    A9        1.90146   0.00093   0.00000   0.00278   0.00270   1.90416
   A10        1.91731   0.00040   0.00000   0.00397   0.00398   1.92129
   A11        1.91837  -0.00140   0.00000  -0.00927  -0.00931   1.90907
   A12        1.90133   0.00082   0.00000   0.00674   0.00675   1.90807
   A13        2.04902  -0.00029   0.00000  -0.00114  -0.00114   2.04787
   A14        2.11680   0.00118   0.00000   0.00466   0.00466   2.12146
   A15        2.11731  -0.00089   0.00000  -0.00356  -0.00356   2.11375
   A16        2.02253  -0.00027   0.00000  -0.00311  -0.00313   2.01940
   A17        2.20102  -0.00172   0.00000  -0.00775  -0.00777   2.19325
   A18        2.05961   0.00199   0.00000   0.01079   0.01078   2.07038
   A19        2.08381   0.00080   0.00000   0.00561   0.00527   2.08909
   A20        2.09598  -0.00026   0.00000   0.00241   0.00208   2.09806
   A21        2.07984  -0.00033   0.00000   0.00161   0.00127   2.08111
   A22        1.79419   0.01446   0.00000   0.05716   0.05712   1.85131
   A23        2.24255  -0.00520   0.00000  -0.02079  -0.02082   2.22174
   A24        2.24443  -0.00929   0.00000  -0.03712  -0.03713   2.20730
   A25        2.09852  -0.00090   0.00000  -0.00312  -0.00312   2.09540
   A26        2.13234   0.00060   0.00000   0.00283   0.00283   2.13517
   A27        2.05227   0.00030   0.00000   0.00031   0.00031   2.05257
   A28        2.11238  -0.00378   0.00000  -0.01466  -0.01466   2.09772
   A29        2.10064   0.00143   0.00000   0.00508   0.00508   2.10572
   A30        2.07016   0.00234   0.00000   0.00958   0.00958   2.07974
   A31        2.11904  -0.00037   0.00000  -0.00184  -0.00185   2.11719
   A32        2.07383  -0.00046   0.00000  -0.00309  -0.00309   2.07074
   A33        2.09031   0.00084   0.00000   0.00494   0.00494   2.09525
   A34        1.89484  -0.00299   0.00000  -0.01843  -0.01843   1.87642
   A35        2.06228   0.00110   0.00000   0.00586   0.00586   2.06814
   A36        2.10794  -0.00084   0.00000  -0.00337  -0.00336   2.10457
   A37        2.11297  -0.00026   0.00000  -0.00249  -0.00249   2.11047
   A38        2.09413   0.00018   0.00000   0.00177   0.00177   2.09590
   A39        2.09055  -0.00010   0.00000  -0.00095  -0.00095   2.08960
   A40        2.09849  -0.00008   0.00000  -0.00082  -0.00082   2.09768
   A41        2.09232  -0.00070   0.00000  -0.00193  -0.00193   2.09039
   A42        2.08836   0.00027   0.00000   0.00046   0.00046   2.08882
   A43        2.10249   0.00043   0.00000   0.00148   0.00148   2.10397
    D1       -0.08465   0.00000   0.00000  -0.00169  -0.00170  -0.08635
    D2        3.06845   0.00006   0.00000   0.00188   0.00188   3.07033
    D3        2.00444  -0.00019   0.00000  -0.00418  -0.00418   2.00026
    D4       -1.12565  -0.00013   0.00000  -0.00061  -0.00060  -1.12625
    D5       -2.16868   0.00009   0.00000  -0.00051  -0.00052  -2.16919
    D6        0.98442   0.00015   0.00000   0.00306   0.00307   0.98749
    D7       -1.03725   0.00035   0.00000   0.00567   0.00562  -1.03162
    D8        2.09284   0.00030   0.00000   0.00215   0.00212   2.09495
    D9       -3.13308   0.00005   0.00000   0.00178   0.00177  -3.13130
   D10       -0.00300   0.00000   0.00000  -0.00174  -0.00173  -0.00473
   D11        1.05823  -0.00034   0.00000  -0.00323  -0.00320   1.05504
   D12       -2.09487  -0.00039   0.00000  -0.00675  -0.00670  -2.10157
   D13       -3.11710  -0.00038   0.00000  -0.01458  -0.01456  -3.13166
   D14        0.03308  -0.00011   0.00000  -0.00412  -0.00414   0.02894
   D15        0.03645  -0.00032   0.00000  -0.01089  -0.01087   0.02558
   D16       -3.09655  -0.00004   0.00000  -0.00042  -0.00044  -3.09699
   D17       -3.01754  -0.00077   0.00000  -0.03371  -0.03375  -3.05130
   D18       -0.10928   0.00024   0.00000   0.01343   0.01343  -0.09585
   D19        0.13281  -0.00048   0.00000  -0.02299  -0.02299   0.10982
   D20        3.04107   0.00053   0.00000   0.02416   0.02420   3.06526
   D21        1.46920   0.00121   0.00000   0.05654   0.05671   1.52590
   D22       -1.73657   0.00059   0.00000   0.04379   0.04364  -1.69294
   D23       -1.44123   0.00021   0.00000   0.00973   0.00988  -1.43135
   D24        1.63618  -0.00042   0.00000  -0.00302  -0.00319   1.63299
   D25       -3.10628   0.00004   0.00000   0.00998   0.00985  -3.09643
   D26        0.04750  -0.00001   0.00000   0.00736   0.00723   0.05472
   D27       -0.04479   0.00012   0.00000  -0.00252  -0.00239  -0.04718
   D28        3.10898   0.00006   0.00000  -0.00514  -0.00501   3.10397
   D29        0.01901  -0.00014   0.00000  -0.00672  -0.00672   0.01230
   D30       -3.12064  -0.00013   0.00000  -0.00609  -0.00609  -3.12673
   D31       -3.13421  -0.00008   0.00000  -0.00420  -0.00420  -3.13841
   D32        0.00932  -0.00007   0.00000  -0.00357  -0.00357   0.00575
   D33        3.12146   0.00011   0.00000   0.00544   0.00545   3.12690
   D34       -0.02369   0.00016   0.00000   0.00749   0.00748  -0.01620
   D35       -0.00826   0.00006   0.00000   0.00291   0.00291  -0.00535
   D36        3.12978   0.00011   0.00000   0.00495   0.00495   3.13473
   D37        0.01454  -0.00021   0.00000  -0.00812  -0.00812   0.00642
   D38       -3.12896  -0.00022   0.00000  -0.00874  -0.00874  -3.13770
   D39        3.14045   0.00000   0.00000   0.00017   0.00017   3.14062
   D40       -0.00421   0.00004   0.00000   0.00179   0.00179  -0.00242
   D41        0.00076   0.00002   0.00000   0.00081   0.00081   0.00157
   D42        3.13928   0.00006   0.00000   0.00243   0.00243  -3.14147
   D43        0.00199  -0.00001   0.00000  -0.00040  -0.00039   0.00159
   D44        3.13870   0.00002   0.00000   0.00095   0.00096   3.13966
   D45       -3.13602  -0.00006   0.00000  -0.00244  -0.00244  -3.13847
   D46        0.00069  -0.00003   0.00000  -0.00109  -0.00109  -0.00040
   D47       -0.00234   0.00002   0.00000   0.00082   0.00082  -0.00151
   D48       -3.13850  -0.00003   0.00000  -0.00139  -0.00138  -3.13989
   D49        3.13610   0.00006   0.00000   0.00250   0.00250   3.13859
   D50       -0.00007   0.00001   0.00000   0.00029   0.00029   0.00022
   D51        0.00347  -0.00003   0.00000  -0.00153  -0.00153   0.00194
   D52        3.13959   0.00002   0.00000   0.00069   0.00069   3.14028
   D53       -3.13322  -0.00007   0.00000  -0.00289  -0.00289  -3.13611
   D54        0.00290  -0.00002   0.00000  -0.00067  -0.00067   0.00223
         Item               Value     Threshold  Converged?
 Maximum Force            0.014464     0.000450     NO 
 RMS     Force            0.002399     0.000300     NO 
 Maximum Displacement     0.200854     0.001800     NO 
 RMS     Displacement     0.049875     0.001200     NO 
 Predicted change in Energy=-1.180326D-03
 GradGradGradGradGradGradGradGradGradGradGradGradGradGradGradGradGradGrad

                          Input orientation:                          
 ---------------------------------------------------------------------
 Center     Atomic      Atomic             Coordinates (Angstroms)
 Number     Number       Type             X           Y           Z
 ---------------------------------------------------------------------
      1          6           0        0.395743    0.020420    8.571412
      2          1           0        1.211557    0.735845    8.501362
      3          1           0       -0.361473    0.410337    9.253868
      4          6           0        0.351400    0.653674    6.164654
      5          1           0        0.194919    1.706526    6.406002
      6          7           0       -0.169409   -0.175766    7.240558
      7          1           0        0.783680   -0.922909    8.958861
      8          1           0       -0.156838    0.418115    5.231791
      9          1           0        1.420942    0.468684    6.049966
     10          6           0       -1.126252   -1.056052    7.020112
     11          1           0       -1.469634   -1.130489    5.994133
     12          6           0       -1.727825   -1.860320    7.985085
     13          6           0       -2.699071   -2.874320    7.579505
     14          1           0       -1.356228   -1.858976    9.008833
     15          8           0       -2.006389   -3.949507    7.303477
     16          6           0       -4.112896   -2.759462    7.580803
     17          6           0       -4.917855   -3.869112    7.203817
     18          6           0       -4.772736   -1.563878    7.936527
     19          8           0       -4.337486   -5.047025    6.854965
     20          6           0       -6.297733   -3.765262    7.183838
     21          6           0       -6.158075   -1.469972    7.913746
     22          1           0       -4.174548   -0.707720    8.233497
     23          1           0       -3.370901   -4.932394    6.931782
     24          1           0       -6.877913   -4.633500    6.889782
     25          6           0       -6.925728   -2.568041    7.536804
     26          1           0       -6.638589   -0.539058    8.193899
     27          1           0       -8.007444   -2.503436    7.517537
 ---------------------------------------------------------------------
                    Distance matrix (angstroms):
                    1          2          3          4          5
     1  C    0.000000
     2  H    1.087333   0.000000
     3  H    1.091402   1.773879   0.000000
     4  C    2.489068   2.491350   3.179724   0.000000
     5  H    2.751779   2.523154   3.178053   1.091436   0.000000
     6  N    1.459130   2.080320   2.105664   1.454917   2.090991
     7  H    1.091092   1.773091   1.782119   3.237294   3.711827
     8  H    3.408310   3.558588   4.027287   1.088130   1.778343
     9  H    2.758562   2.474784   3.666796   1.091465   1.778243
    10  C    2.425241   3.297022   2.779362   2.416284   3.123214
    11  H    3.383281   4.118032   3.772008   2.555089   3.314970
    12  C    2.896637   3.955576   2.938131   3.735948   4.348890
    13  C    4.352157   5.401493   4.365413   4.873799   5.544045
    14  H    2.606313   3.685668   2.489852   4.161581   4.679059
    15  O    4.810220   5.808841   5.051536   5.295786   6.135301
    16  C    5.388588   6.435403   5.188444   5.795249   6.315258
    17  C    6.725556   7.775536   6.578527   7.021432   7.606886
    18  C    5.443001   6.435801   5.009207   5.857802   6.141307
    19  O    7.143435   8.181938   7.165628   7.413512   8.145841
    20  C    7.814050   8.853547   7.547175   8.048398   8.526432
    21  C    6.753246   7.715076   6.239558   7.066998   7.261127
    22  H    4.640252   5.582631   4.102530   5.159236   5.316067
    23  H    6.434777   7.455966   6.556944   6.756342   7.554255
    24  H    8.797325   9.842082   8.572817   8.985710   9.510779
    25  C    7.834187   8.835239   7.410026   8.075818   8.381781
    26  H    7.066637   7.958939   6.436387   7.375662   7.411886
    27  H    8.837084   9.820939   8.364556   9.037030   9.286445
                    6          7          8          9         10
     6  N    0.000000
     7  H    2.102181   0.000000
     8  H    2.094755   4.071114   0.000000
     9  H    2.088551   3.286990   1.778021   0.000000
    10  C    1.318730   2.724759   2.512175   3.123172   0.000000
    11  H    2.038543   3.729628   2.168588   3.303923   1.084474
    12  C    2.412613   2.852127   3.903830   4.368487   1.392806
    13  C    3.714332   4.223763   4.776488   5.521745   2.468355
    14  H    2.714503   2.336220   4.570527   4.678201   2.156985
    15  O    4.197567   4.436786   5.175793   5.730471   3.037600
    16  C    4.726768   5.408181   5.591534   6.586938   3.483679
    17  C    6.015803   6.653404   6.703468   7.767123   4.724755
    18  C    4.858173   5.685927   5.705296   6.786168   3.794014
    19  O    6.422672   6.903698   7.069673   8.014398   5.125150
    20  C    7.102398   7.834289   7.682560   8.876369   5.840449
    21  C    6.163786   7.041271   6.839049   8.041988   5.127294
    22  H    4.160533   5.015624   5.140013   6.120559   3.299355
    23  H    5.741985   6.119277   6.469012   7.273995   4.480209
[...]
 Alpha virt. eigenvalues --   -0.02204   0.03903   0.04678   0.05052   0.05532
 Alpha virt. eigenvalues --    0.05718   0.06103   0.06846   0.07864   0.08019
 Alpha virt. eigenvalues --    0.08128   0.08953   0.09235   0.09499   0.09630
 Alpha virt. eigenvalues --    0.10161   0.11510   0.11908   0.12310   0.13301
 Alpha virt. eigenvalues --    0.13913   0.14488   0.15176   0.15792   0.16093
 Alpha virt. eigenvalues --    0.16184   0.16443   0.16705   0.17013   0.17318
 Alpha virt. eigenvalues --    0.17484   0.18431   0.18475   0.18605   0.18931
 Alpha virt. eigenvalues --    0.19464   0.19655   0.19960   0.20315   0.20789
 Alpha virt. eigenvalues --    0.20867   0.21671   0.21967   0.22431   0.22976
 Alpha virt. eigenvalues --    0.23906   0.24078   0.24233   0.24546   0.25055
 Alpha virt. eigenvalues --    0.25348   0.26016   0.26628   0.27394   0.27737
 Alpha virt. eigenvalues --    0.28500   0.28951   0.29080   0.29233   0.29632
 Alpha virt. eigenvalues --    0.30403   0.31044   0.31530   0.31941   0.32477
 Alpha virt. eigenvalues --    0.32583   0.33143   0.33724   0.34095   0.34862
 Alpha virt. eigenvalues --    0.35399   0.35935   0.36351   0.36430   0.37062
 Alpha virt. eigenvalues --    0.37595   0.38358   0.38807   0.38968   0.39157
 Alpha virt. eigenvalues --    0.39579   0.39956   0.41161   0.41668   0.42595
 Alpha virt. eigenvalues --    0.43341   0.44008   0.44574   0.45842   0.46474
 Alpha virt. eigenvalues --    0.47509   0.49582   0.50885   0.51287   0.53002
 Alpha virt. eigenvalues --    0.53319   0.54328   0.54588   0.57805   0.58149
 Alpha virt. eigenvalues --    0.59316   0.60548   0.60944   0.61535   0.62731
 Alpha virt. eigenvalues --    0.63956   0.65164   0.65234   0.66369   0.67209
 Alpha virt. eigenvalues --    0.67482   0.68473   0.68507   0.69281   0.70612
 Alpha virt. eigenvalues --    0.71445   0.72012   0.72515   0.73393   0.73639
 Alpha virt. eigenvalues --    0.74539   0.74797   0.75479   0.76043   0.77343
 Alpha virt. eigenvalues --    0.78462   0.79240   0.80193   0.80968   0.81891
 Alpha virt. eigenvalues --    0.82513   0.83734   0.84786   0.85261   0.86899
 Alpha virt. eigenvalues --    0.89589   0.89754   0.91636   0.92113   0.92500
 Alpha virt. eigenvalues --    0.93932   0.95524   0.96376   0.97370   0.97608
 Alpha virt. eigenvalues --    0.99497   1.01077   1.01635   1.02840   1.05334
 Alpha virt. eigenvalues --    1.05791   1.07221   1.08074   1.08447   1.09407
 Alpha virt. eigenvalues --    1.10070   1.13159   1.13931   1.14447   1.16593
 Alpha virt. eigenvalues --    1.17848   1.19378   1.20272   1.20643   1.21382
 Alpha virt. eigenvalues --    1.23339   1.25741   1.28185   1.29623   1.30941
 Alpha virt. eigenvalues --    1.32272   1.35601   1.37363   1.39095   1.40198
 Alpha virt. eigenvalues --    1.41963   1.46845   1.48029   1.49712   1.52298
 Alpha virt. eigenvalues --    1.52767   1.53795   1.55326   1.56409   1.58451
 Alpha virt. eigenvalues --    1.58959   1.60988   1.61539   1.63210   1.63755
 Alpha virt. eigenvalues --    1.64266   1.64479   1.65095   1.65844   1.67663
 Alpha virt. eigenvalues --    1.68465   1.71017   1.72937   1.73598   1.74353
 Alpha virt. eigenvalues --    1.75223   1.76150   1.78706   1.79606   1.80211
 Alpha virt. eigenvalues --    1.81990   1.82318   1.84330   1.85515   1.86529
 Alpha virt. eigenvalues --    1.88102   1.88589   1.91006   1.91944   1.95545
 Alpha virt. eigenvalues --    1.97286   1.98705   1.99319   2.00988   2.01513
 Alpha virt. eigenvalues --    2.02463   2.03673   2.05000   2.06162   2.07252
 Alpha virt. eigenvalues --    2.07756   2.10178   2.11794   2.12032   2.12814
 Alpha virt. eigenvalues --    2.15587   2.15988   2.21341   2.24042   2.24281
 Alpha virt. eigenvalues --    2.26777   2.27626   2.29552   2.32156   2.33864
 Alpha virt. eigenvalues --    2.36616   2.38888   2.41528   2.44275   2.47167
 Alpha virt. eigenvalues --    2.51603   2.52883   2.54081   2.55550   2.56075
 Alpha virt. eigenvalues --    2.58410   2.58998   2.61218   2.61685   2.63943
 Alpha virt. eigenvalues --    2.66663   2.67182   2.69447   2.71116   2.73562
 Alpha virt. eigenvalues --    2.74516   2.74920   2.76461   2.78586   2.79265
 Alpha virt. eigenvalues --    2.80149   2.82243   2.82676   2.83082   2.83703
 Alpha virt. eigenvalues --    2.84994   2.85931   2.87129   2.88866   2.89332
 Alpha virt. eigenvalues --    2.92513   2.94027   2.96049   2.97362   2.99472
 Alpha virt. eigenvalues --    3.02711   3.03137   3.05016   3.09399   3.11863
 Alpha virt. eigenvalues --    3.15795   3.16850   3.17562   3.18485   3.19456
 Alpha virt. eigenvalues --    3.19615   3.26744   3.28109   3.29606   3.31856
 Alpha virt. eigenvalues --    3.35107   3.36508   3.43089   3.47133   3.47919
 Alpha virt. eigenvalues --    3.55953   3.58469   3.62415   3.66752   3.68438
 Alpha virt. eigenvalues --    3.72175   3.75211   3.77395   3.84047   3.84873
 Alpha virt. eigenvalues --    3.88987   3.90967   3.95899   3.96502   4.01403
 Alpha virt. eigenvalues --    4.12073   4.13339   4.14348   4.17737   4.26006
 Alpha virt. eigenvalues --    4.27934   4.36128   4.51723   4.92470   4.98614
 Alpha virt. eigenvalues --    5.12210   5.18261   5.18946   5.39303   5.57333
 Alpha virt. eigenvalues --    5.81757   5.88485  23.70192  23.96842  24.02685
 Alpha virt. eigenvalues --   24.03033  24.07670  24.09036  24.09856  24.15981
 Alpha virt. eigenvalues --   24.21649  24.24472  24.30646  35.73023  50.08813
 Alpha virt. eigenvalues --   50.12946
          Condensed to atoms (all electrons):
               1          2          3          4          5          6
     1  C    5.165768   0.387239   0.391481  -0.069193   0.006866   0.232165
     2  H    0.387239   0.475151  -0.024119   0.005204  -0.004093  -0.052219
     3  H    0.391481  -0.024119   0.535146  -0.009878   0.000757  -0.064791
     4  C   -0.069193   0.005204  -0.009878   5.173794   0.404761   0.245716
     5  H    0.006866  -0.004093   0.000757   0.404761   0.564084  -0.059950
     6  N    0.232165  -0.052219  -0.064791   0.245716  -0.059950   6.893279
     7  H    0.433050  -0.012637  -0.046327   0.011417   0.000688  -0.036476
     8  H   -0.003357   0.003585  -0.002504   0.393943  -0.031939  -0.094686
     9  H   -0.004251  -0.005856   0.002887   0.431799  -0.065211  -0.051603
    10  C   -0.275518   0.036221   0.004108  -0.048958  -0.030898   0.284790
    11  H    0.008197  -0.000093   0.000677  -0.028712   0.008311  -0.069065
    12  C    0.245884   0.003014   0.011083  -0.148138   0.015160  -0.325277
    13  C   -0.041858  -0.007744   0.018722  -0.044916   0.008108  -0.017016
    14  H    0.017806  -0.001281  -0.002795  -0.010849   0.002968  -0.038237
    15  O   -0.001705  -0.000061  -0.000570  -0.002844  -0.000012  -0.004996
    16  C   -0.108808  -0.003659   0.005090   0.005826   0.003138  -0.084388
    17  C    0.007951   0.001134  -0.002174  -0.002187   0.000637  -0.021237
    18  C    0.019005  -0.002273   0.000852   0.019019   0.000190   0.054979
    19  O   -0.000114  -0.000010   0.000018  -0.000153   0.000003  -0.000196
    20  C    0.001777   0.000100  -0.001379  -0.000697   0.000188  -0.007706
    21  C    0.013581   0.000634   0.002740   0.004974  -0.000507   0.038224
    22  H    0.005211   0.000367  -0.006324   0.000724  -0.000389   0.009671
    23  H   -0.000739  -0.000076   0.000063   0.000153  -0.000011   0.000761
    24  H   -0.000013   0.000000  -0.000001   0.000000   0.000000  -0.000004
    25  C    0.001122   0.000046   0.000230   0.000133   0.000039   0.000449
    26  H   -0.000623  -0.000044   0.000316   0.000057  -0.000002  -0.000080
    27  H    0.000004  -0.000001  -0.000002   0.000013   0.000001   0.000049
               7          8          9         10         11         12
     1  C    0.433050  -0.003357  -0.004251  -0.275518   0.008197   0.245884
     2  H   -0.012637   0.003585  -0.005856   0.036221  -0.000093   0.003014
     3  H   -0.046327  -0.002504   0.002887   0.004108   0.000677   0.011083
     4  C    0.011417   0.393943   0.431799  -0.048958  -0.028712  -0.148138
     5  H    0.000688  -0.031939  -0.065211  -0.030898   0.008311   0.015160
     6  N   -0.036476  -0.094686  -0.051603   0.284790  -0.069065  -0.325277
     7  H    0.513852  -0.000623  -0.000606  -0.007494  -0.004332   0.002390
     8  H   -0.000623   0.539643  -0.019514   0.092934  -0.010792  -0.010890
     9  H   -0.000606  -0.019514   0.553656  -0.009646  -0.002266  -0.005479
    10  C   -0.007494   0.092934  -0.009646   8.043472   0.234272  -1.445900
    11  H   -0.004332  -0.010792  -0.002266   0.234272   0.500316   0.166891
    12  C    0.002390  -0.010890  -0.005479  -1.445900   0.166891  12.538988
    13  C   -0.037477  -0.001516  -0.005778  -0.792737   0.019578   2.156829
    14  H   -0.007545  -0.002492  -0.002019  -0.202567   0.020507   0.631000
    15  O    0.000531   0.000923   0.000014  -0.069129  -0.004026  -0.435426
    16  C   -0.006369  -0.002305   0.000968   0.523845   0.020489  -4.766871
    17  C   -0.001591  -0.000676  -0.000256  -0.133987   0.024572  -0.333736
    18  C    0.010195   0.000632  -0.001552   0.402054  -0.051720  -1.614291
    19  O   -0.000060   0.000051  -0.000001  -0.009887  -0.000845  -0.031697
    20  C    0.000741  -0.000496  -0.000047  -0.053273   0.012827  -0.740247
    21  C   -0.000524   0.001968  -0.000504   0.124253  -0.031617   0.410439
    22  H    0.002374   0.000467   0.000048  -0.011173  -0.003336  -0.028654
    23  H    0.000166   0.000062   0.000018   0.009376  -0.002194  -0.005451
    24  H    0.000001   0.000008  -0.000001   0.000621  -0.000041  -0.005698
    25  C    0.000036  -0.000123  -0.000022  -0.001014   0.000824  -0.022981
    26  H   -0.000036   0.000046  -0.000004   0.004501  -0.000195  -0.007278
    27  H    0.000001  -0.000005   0.000001  -0.000414  -0.000025  -0.000222
              13         14         15         16         17         18
     1  C   -0.041858   0.017806  -0.001705  -0.108808   0.007951   0.019005
     2  H   -0.007744  -0.001281  -0.000061  -0.003659   0.001134  -0.002273
     3  H    0.018722  -0.002795  -0.000570   0.005090  -0.002174   0.000852
     4  C   -0.044916  -0.010849  -0.002844   0.005826  -0.002187   0.019019
     5  H    0.008108   0.002968  -0.000012   0.003138   0.000637   0.000190
     6  N   -0.017016  -0.038237  -0.004996  -0.084388  -0.021237   0.054979
     7  H   -0.037477  -0.007545   0.000531  -0.006369  -0.001591   0.010195
     8  H   -0.001516  -0.002492   0.000923  -0.002305  -0.000676   0.000632
     9  H   -0.005778  -0.002019   0.000014   0.000968  -0.000256  -0.001552
    10  C   -0.792737  -0.202567  -0.069129   0.523845  -0.133987   0.402054
    11  H    0.019578   0.020507  -0.004026   0.020489   0.024572  -0.051720
    12  C    2.156829   0.631000  -0.435426  -4.766871  -0.333736  -1.614291
    13  C   13.930587   0.037667   0.775993  -2.782694  -0.685058  -3.121196
    14  H    0.037667   0.497508   0.011655  -0.031195   0.027568  -0.150999
    15  O    0.775993   0.011655   8.109959  -0.027337   0.073675  -0.090171
    16  C   -2.782694  -0.031195  -0.027337  15.194280  -0.439627   0.077250
    17  C   -0.685058   0.027568   0.073675  -0.439627  15.405958  -4.776204
    18  C   -3.121196  -0.150999  -0.090171   0.077250  -4.776204  14.054962
    19  O   -0.102153   0.001544  -0.024601   0.112296   0.352269   0.025661
    20  C   -4.378320  -0.003863  -0.055494  -0.851940  -2.904966   3.403585
    21  C    1.481689  -0.029331  -0.008641  -2.012174   0.871054  -2.129005
    22  H   -0.080261  -0.006610  -0.001235  -0.053772   0.008028   0.551937
    23  H    0.003730  -0.002291   0.094006  -0.148865   0.068081   0.000216
    24  H   -0.042803  -0.000265   0.000149  -0.070551  -0.149346   0.051669
    25  C   -0.331221  -0.000282  -0.005790   0.178111  -1.331685  -0.041254
    26  H    0.003522  -0.000449   0.000310   0.012442   0.044169  -0.106212
    27  H    0.015459   0.000073  -0.000038   0.066268   0.016689  -0.066293
              19         20         21         22         23         24
     1  C   -0.000114   0.001777   0.013581   0.005211  -0.000739  -0.000013
     2  H   -0.000010   0.000100   0.000634   0.000367  -0.000076   0.000000
     3  H    0.000018  -0.001379   0.002740  -0.006324   0.000063  -0.000001
     4  C   -0.000153  -0.000697   0.004974   0.000724   0.000153   0.000000
     5  H    0.000003   0.000188  -0.000507  -0.000389  -0.000011   0.000000
     6  N   -0.000196  -0.007706   0.038224   0.009671   0.000761  -0.000004
     7  H   -0.000060   0.000741  -0.000524   0.002374   0.000166   0.000001
     8  H    0.000051  -0.000496   0.001968   0.000467   0.000062   0.000008
     9  H   -0.000001  -0.000047  -0.000504   0.000048   0.000018  -0.000001
    10  C   -0.009887  -0.053273   0.124253  -0.011173   0.009376   0.000621
    11  H   -0.000845   0.012827  -0.031617  -0.003336  -0.002194  -0.000041
    12  C   -0.031697  -0.740247   0.410439  -0.028654  -0.005451  -0.005698
    13  C   -0.102153  -4.378320   1.481689  -0.080261   0.003730  -0.042803
    14  H    0.001544  -0.003863  -0.029331  -0.006610  -0.002291  -0.000265
    15  O   -0.024601  -0.055494  -0.008641  -0.001235   0.094006   0.000149
    16  C    0.112296  -0.851940  -2.012174  -0.053772  -0.148865  -0.070551
    17  C    0.352269  -2.904966   0.871054   0.008028   0.068081  -0.149346
    18  C    0.025661   3.403585  -2.129005   0.551937   0.000216   0.051669
    19  O    8.090968  -0.349213   0.001351  -0.001106   0.246454  -0.023924
    20  C   -0.349213  12.415947  -1.863014   0.093757   0.040469   0.590854
    21  C    0.001351  -1.863014   9.078952  -0.123709   0.013932  -0.017412
    22  H   -0.001106   0.093757  -0.123709   0.445266  -0.000061   0.001317
    23  H    0.246454   0.040469   0.013932  -0.000061   0.352299   0.001599
    24  H   -0.023924   0.590854  -0.017412   0.001317   0.001599   0.439372
    25  C    0.021392   1.071558   0.408674  -0.010041  -0.008001  -0.021590
    26  H   -0.000108  -0.007092   0.428453  -0.008539   0.000464   0.000849
    27  H    0.001256  -0.102566  -0.038556  -0.000323  -0.000164  -0.008857
              25         26         27
     1  C    0.001122  -0.000623   0.000004
     2  H    0.000046  -0.000044  -0.000001
     3  H    0.000230   0.000316  -0.000002
     4  C    0.000133   0.000057   0.000013
     5  H    0.000039  -0.000002   0.000001
     6  N    0.000449  -0.000080   0.000049
     7  H    0.000036  -0.000036   0.000001
     8  H   -0.000123   0.000046  -0.000005
     9  H   -0.000022  -0.000004   0.000001
    10  C   -0.001014   0.004501  -0.000414
    11  H    0.000824  -0.000195  -0.000025
    12  C   -0.022981  -0.007278  -0.000222
    13  C   -0.331221   0.003522   0.015459
    14  H   -0.000282  -0.000449   0.000073
    15  O   -0.005790   0.000310  -0.000038
    16  C    0.178111   0.012442   0.066268
    17  C   -1.331685   0.044169   0.016689
    18  C   -0.041254  -0.106212  -0.066293
    19  O    0.021392  -0.000108   0.001256
    20  C    1.071558  -0.007092  -0.102566
    21  C    0.408674   0.428453  -0.038556
    22  H   -0.010041  -0.008539  -0.000323
    23  H   -0.008001   0.000464  -0.000164
    24  H   -0.021590   0.000849  -0.008857
    25  C    5.994448  -0.043078   0.442482
    26  H   -0.043078   0.432758  -0.006564
    27  H    0.442482  -0.006564   0.433694
 Mulliken charges:
               1
     1  C   -0.430930
     2  H    0.201469
     3  H    0.186694
     4  C   -0.331010
     5  H    0.177114
     6  N    0.167843
     7  H    0.186656
     8  H    0.147657
     9  H    0.185224
    10  C   -0.667852
    11  H    0.191797
    12  C   -0.253443
    13  C    0.020862
    14  H    0.244773
    15  O   -0.335139
    16  C    1.190553
    17  C   -0.119054
    18  C   -0.521033
    19  O   -0.309196
    20  C   -0.311490
    21  C   -0.625926
    22  H    0.216366
    23  H    0.336004
    24  H    0.254067
    25  C   -0.302462
    26  H    0.252416
    27  H    0.248042
 Sum of Mulliken charges =   0.00000
 Mulliken charges with hydrogens summed into heavy atoms:
               1
     1  C    0.143889
     4  C    0.178985
     6  N    0.167843
    10  C   -0.476055
    12  C   -0.008670
    13  C    0.020862
    15  O   -0.335139
    16  C    1.190553
    17  C   -0.119054
    18  C   -0.304667
    19  O    0.026808
    20  C   -0.057423
    21  C   -0.373510
    25  C   -0.054420
 Electronic spatial extent (au):  <R**2>=           3737.0590
 Charge=              0.0000 electrons
 Dipole moment (field-independent basis, Debye):
    X=              4.2480    Y=             -6.0845    Z=              0.5332  Tot=              7.4398
 Quadrupole moment (field-independent basis, Debye-Ang):
   XX=            -59.3998   YY=            -90.3100   ZZ=            -81.2303
   XY=              4.3790   XZ=              0.9725   YZ=              0.3076
 Traceless Quadrupole moment (field-independent basis, Debye-Ang):
   XX=             17.5802   YY=            -13.3299   ZZ=             -4.2503
   XY=              4.3790   XZ=              0.9725   YZ=              0.3076
 Octapole moment (field-independent basis, Debye-Ang**2):
  XXX=             72.3218  YYY=            -32.0541  ZZZ=              4.0084  XYY=             -2.4055
  XXY=            -42.5454  XXZ=              8.6967  XZZ=             24.5964  YZZ=              6.6656
  YYZ=             -0.5708  XYZ=              2.1006
 Hexadecapole moment (field-independent basis, Debye-Ang**3):
 XXXX=          -3239.0628 YYYY=           -845.9230 ZZZZ=           -292.8908 XXXY=             50.2525
 XXXZ=            -19.5160 YYYX=             24.5824 YYYZ=              9.7971 ZZZX=              9.6975
 ZZZY=             -2.6189 XXYY=           -777.6664 XXZZ=           -678.1287 YYZZ=           -201.6850
 XXYZ=            -14.0397 YYXZ=              5.0860 ZZXY=            -17.3633
 N-N= 8.393663580632D+02 E-N=-3.152574591128D+03  KE= 6.294251530159D+02
 1\1\GINC-DN7\FOpt\RwB97XD TD-FC\6-311++G(d,p)\C11H13N1O2\CA12053\26-De
 c-2016\0\\# wb97xd 6-311++g** opt td=(nstates=1,root=1) SCRF=(PCM,solv
 ent=dichloromethane)\\title\\0,1\C,0.3168543691,0.0577608254,8.5879230
 907\H,1.1144738778,0.793101187,8.5201235559\H,-0.4732353693,0.44265768
 23,9.234030088\C,0.2924127654,0.6758036131,6.1775013391\H,0.0592663012
 ,1.7146162925,6.4160790058\N,-0.2063515615,-0.1856297043,7.2439255111\
 H,0.7182707443,-0.865574698,9.0054699437\H,-0.1732600634,0.4048597295,
 5.2328614569\H,1.3742128625,0.5596375253,6.0993746272\C,-1.104989196,-
 1.1131108204,7.0052654198\H,-1.4226838354,-1.2134028046,5.9733642461\C
 ,-1.6942995718,-1.942739411,7.9654976225\C,-2.649748404,-2.965352297,7
 .5567678625\H,-1.3334851356,-1.9160233548,8.9936183427\O,-2.0073087878
 ,-4.0649683172,7.2610280447\C,-4.0679697654,-2.7990142699,7.5647716639
 \C,-4.9213679414,-3.8789851461,7.2035596945\C,-4.6782186877,-1.5778806
 749,7.9161943237\O,-4.3918308983,-5.0831451827,6.858562647\C,-6.295411
 3227,-3.721852206,7.198634885\C,-6.0611968668,-1.4285466474,7.90914293
 74\H,-4.048579579,-0.7390659491,8.1984448477\H,-3.414554781,-4.9930863
 991,6.9253772082\H,-6.9129124062,-4.5686903717,6.9191535561\C,-6.87317
 58905,-2.4974243074,7.5503738237\H,-6.4998586669,-0.4763505163,8.18642
 77618\H,-7.9518321896,-2.3911917771,7.5431414942\\Version=ES64L-G09Rev
 D.01\State=1-A\HF=-632.1239479\RMSD=5.948e-09\RMSF=9.071e-06\Dipole=4.
 1838533,5.2973148,0.1931388\PG=C01 [X(C11H13N1O2)]\\@


 IT IS THE GODS' CUSTOM TO BRING LOW ALL THINGS OF SURPASSING GREATNESS.
     -- HERODOTUS
 IT IS THE LOFTY PINE THAT BY THE STORM IS OFTENER TOSSED;
 TOWERS FALL WITH HEAVIER CRASH WHICH HIGHER SOAR.
     -- HORACE
 THE BIGGER THEY COME, THE HARDER THEY FALL.
     -- BOB FITZSIMONS HEAVYWEIGHT CHAMPION, 1897-1899
 Job cpu time:       1 days  5 hours 54 minutes 59.2 seconds.
 File lengths (MBytes):  RWF=    248 Int=      0 D2E=      0 Chk=     26 Scr=      1
 Normal termination of Gaussian 09 at Mon Dec 26 02:09:37 2016.
