 Entering Gaussian System, Link 0=g09
 Input=1_opt_DCM.com
 Output=1_opt_DCM.out
 Initial command:
 /share/apps/gaussian/g09_D01/g09/l1.exe "/tmp/3820174.1.serial.q/Gau-21235.inp" -scrdir="/tmp/3820174.1.serial.q/"
 Entering Link 1 = /share/apps/gaussian/g09_D01/g09/l1.exe PID=     21236.
  
 Copyright (c) 1988,1990,1992,1993,1995,1998,2003,2009,2013,
            Gaussian, Inc.  All Rights Reserved.
  
 This is part of the Gaussian(R) 09 program.  It is based on
 the Gaussian(R) 03 system (copyright 2003, Gaussian, Inc.),
 the Gaussian(R) 98 system (copyright 1998, Gaussian, Inc.),
 the Gaussian(R) 94 system (copyright 1995, Gaussian, Inc.),
 the Gaussian 92(TM) system (copyright 1992, Gaussian, Inc.),
 the Gaussian 90(TM) system (copyright 1990, Gaussian, Inc.),
 the Gaussian 88(TM) system (copyright 1988, Gaussian, Inc.),
 the Gaussian 86(TM) system (copyright 1986, Carnegie Mellon
 University), and the Gaussian 82(TM) system (copyright 1983,
 Carnegie Mellon University). Gaussian is a federally registered
 trademark of Gaussian, Inc.
  
 This software contains proprietary and confidential information,
 including trade secrets, belonging to Gaussian, Inc.
  
 This software is provided under written license and may be
 used, copied, transmitted, or stored only in accord with that
 written license.
  
 The following legend is applicable only to US Government
 contracts under FAR:
  
                    RESTRICTED RIGHTS LEGEND
  
 Use, reproduction and disclosure by the US Government is
 subject to restrictions as set forth in subparagraphs (a)
 and (c) of the Commercial Computer Software - Restricted
 Rights clause in FAR 52.227-19.
  
 Gaussian, Inc.
 340 Quinnipiac St., Bldg. 40, Wallingford CT 06492
  
  
 ---------------------------------------------------------------
 Warning -- This program may not be used in any manner that
 competes with the business of Gaussian, Inc. or will provide
 assistance to any competitor of Gaussian, Inc.  The licensee
 of this program is prohibited from giving any competitor of
 Gaussian, Inc. access to this program.  By using this program,
 the user acknowledges that Gaussian, Inc. is engaged in the
 business of creating and licensing software in the field of
 computational chemistry and represents and warrants to the
 licensee that it is not a competitor of Gaussian, Inc. and that
 it will not use this program in any manner prohibited above.
 ---------------------------------------------------------------
  

 Cite this work as:
 Gaussian 09, Revision D.01,
 M. J. Frisch, G. W. Trucks, H. B. Schlegel, G. E. Scuseria, 
 M. A. Robb, J. R. Cheeseman, G. Scalmani, V. Barone, B. Mennucci, 
 G. A. Petersson, H. Nakatsuji, M. Caricato, X. Li, H. P. Hratchian, 
 A. F. Izmaylov, J. Bloino, G. Zheng, J. L. Sonnenberg, M. Hada, 
 M. Ehara, K. Toyota, R. Fukuda, J. Hasegawa, M. Ishida, T. Nakajima, 
 Y. Honda, O. Kitao, H. Nakai, T. Vreven, J. A. Montgomery, Jr., 
 J. E. Peralta, F. Ogliaro, M. Bearpark, J. J. Heyd, E. Brothers, 
 K. N. Kudin, V. N. Staroverov, T. Keith, R. Kobayashi, J. Normand, 
 K. Raghavachari, A. Rendell, J. C. Burant, S. S. Iyengar, J. Tomasi, 
 M. Cossi, N. Rega, J. M. Millam, M. Klene, J. E. Knox, J. B. Cross, 
 V. Bakken, C. Adamo, J. Jaramillo, R. Gomperts, R. E. Stratmann, 
 O. Yazyev, A. J. Austin, R. Cammi, C. Pomelli, J. W. Ochterski, 
 R. L. Martin, K. Morokuma, V. G. Zakrzewski, G. A. Voth, 
 P. Salvador, J. J. Dannenberg, S. Dapprich, A. D. Daniels, 
 O. Farkas, J. B. Foresman, J. V. Ortiz, J. Cioslowski, 
 and D. J. Fox, Gaussian, Inc., Wallingford CT, 2013.
 
 ******************************************
 Gaussian 09:  ES64L-G09RevD.01 24-Apr-2013
                18-Oct-2016 
 ******************************************
 %chk=1_opt_DCM.chk
 %mem=2GB
 %nproc=4
 Will use up to    4 processors via shared memory.
 ----------------------------------------------------------------------
 # wb97xd 6-311++g** opt geom=allcheck SCRF=(PCM,solvent=dichloromethan
 e)
 ----------------------------------------------------------------------
 1/14=-1,18=20,19=15,26=3,29=7,38=1/1,3;
 2/9=110,12=2,40=1/2;
 3/5=4,6=6,7=1111,11=2,14=-4,16=1,25=1,30=1,70=2201,71=1,72=9,74=-58/1,2,3;
 4//1;
 5/5=2,38=5,53=9/2;
 6/7=2,8=2,9=2,10=2,28=1/1;
 7//1,2,3,16;
 1/14=-1,18=20,19=15,26=3/3(2);
 2/9=110/2;
 99//99;
 2/9=110/2;
 3/5=4,6=6,7=1111,11=2,14=-2,16=1,25=1,30=1,70=2205,71=1,72=9,74=-58/1,2,3;
 4/5=5,16=3,69=1/1;
 5/5=2,38=5,53=9/2;
 7//1,2,3,16;
 1/14=-1,18=20,19=15,26=3/3(-5);
 2/9=110/2;
 6/7=2,8=2,9=2,10=2,19=2,28=1/1;
 99/9=1/99;
 Structure from the checkpoint file:  "1_opt_DCM.chk"
 -----------
 Geom Opt s0
 -----------
 Charge =  0 Multiplicity = 1
 Redundant internal coordinates found in file.
 C,0,3.7028460938,1.6360630255,-0.0082215821
 H,0,4.7525070605,1.921222042,0.0333865619
 H,0,3.2608033713,2.0505383533,-0.9194095968
 C,0,4.8408615361,-0.5760608843,-0.023054029
 H,0,5.4044699156,-0.3572842226,-0.9340865849
 N,0,3.6032527397,0.1866662134,0.0013630069
 H,0,3.189103478,2.0624777245,0.8581283865
 H,0,4.616259587,-1.6413913804,0.0033667329
 H,0,5.4581201361,-0.3242312444,0.8432011497
 C,0,2.4156030707,-0.4113197776,0.009529518
 H,0,2.4392141087,-1.4967022255,0.0180568427
 C,0,1.1892184539,0.2046774209,0.00781251
 C,0,0.0052465737,-0.6056989797,0.019552805
 H,0,1.1157689042,1.28067552,-0.0115544431
 O,0,0.0684447906,-1.8582452571,0.0325356308
 C,0,-1.3423033791,0.0336853954,0.0090333308
 C,0,-2.4988256118,-0.7814953125,-0.0092579755
 C,0,-1.5229283082,1.425505103,0.018000952
 O,0,-2.4312490478,-2.1197295033,-0.0159942229
 C,0,-3.7701782093,-0.196936816,-0.0218964582
 C,0,-2.7800336893,2.0001887479,0.0074947428
 H,0,-0.660480161,2.0791785413,0.035492374
 H,0,-1.4633653661,-2.3368032604,0.0015431209
 H,0,-4.6348486978,-0.850395499,-0.0369171382
 C,0,-3.9081001607,1.1773546092,-0.0134295256
 H,0,-2.8864478013,3.078117957,0.0161840312
 H,0,-4.8998778727,1.6159570921,-0.0226494773
 Recover connectivity data from disk.

 GradGradGradGradGradGradGradGradGradGradGradGradGradGradGradGradGradGrad
 Berny optimization.
 Initialization pass.
                           ----------------------------
                           !    Initial Parameters    !
                           ! (Angstroms and Degrees)  !
 --------------------------                            --------------------------
 ! Name  Definition              Value          Derivative Info.                !
 --------------------------------------------------------------------------------
 ! R1    R(1,2)                  1.0885         estimate D2E/DX2                !
 ! R2    R(1,3)                  1.0943         estimate D2E/DX2                !
 ! R3    R(1,6)                  1.4528         estimate D2E/DX2                !
 ! R4    R(1,7)                  1.0938         estimate D2E/DX2                !
 ! R5    R(4,5)                  1.0934         estimate D2E/DX2                !
 ! R6    R(4,6)                  1.454          estimate D2E/DX2                !
 ! R7    R(4,8)                  1.0891         estimate D2E/DX2                !
 ! R8    R(4,9)                  1.0931         estimate D2E/DX2                !
 ! R9    R(6,10)                 1.3297         estimate D2E/DX2                !
 ! R10   R(10,11)                1.0857         estimate D2E/DX2                !
 ! R11   R(10,12)                1.3724         estimate D2E/DX2                !
 ! R12   R(12,13)                1.4348         estimate D2E/DX2                !
 ! R13   R(12,14)                1.0787         estimate D2E/DX2                !
 ! R14   R(13,15)                1.2542         estimate D2E/DX2                !
 ! R15   R(13,16)                1.4916         estimate D2E/DX2                !
 ! R16   R(16,17)                1.4151         estimate D2E/DX2                !
 ! R17   R(16,18)                1.4035         estimate D2E/DX2                !
 ! R18   R(17,19)                1.34           estimate D2E/DX2                !
 ! R19   R(17,20)                1.3994         estimate D2E/DX2                !
 ! R20   R(18,21)                1.3823         estimate D2E/DX2                !
 ! R21   R(18,22)                1.0823         estimate D2E/DX2                !
 ! R22   R(19,23)                0.9921         estimate D2E/DX2                !
 ! R23   R(20,24)                1.0839         estimate D2E/DX2                !
 ! R24   R(20,25)                1.3812         estimate D2E/DX2                !
 ! R25   R(21,25)                1.3964         estimate D2E/DX2                !
 ! R26   R(21,26)                1.0832         estimate D2E/DX2                !
 ! R27   R(25,27)                1.0845         estimate D2E/DX2                !
 ! A1    A(2,1,3)              108.7927         estimate D2E/DX2                !
 ! A2    A(2,1,6)              109.0992         estimate D2E/DX2                !
 ! A3    A(2,1,7)              108.695          estimate D2E/DX2                !
 ! A4    A(3,1,6)              110.8343         estimate D2E/DX2                !
 ! A5    A(3,1,7)              108.7928         estimate D2E/DX2                !
 ! A6    A(6,1,7)              110.5797         estimate D2E/DX2                !
 ! A7    A(5,4,6)              110.3524         estimate D2E/DX2                !
 ! A8    A(5,4,8)              108.799          estimate D2E/DX2                !
 ! A9    A(5,4,9)              108.8527         estimate D2E/DX2                !
 ! A10   A(6,4,8)              109.7062         estimate D2E/DX2                !
 ! A11   A(6,4,9)              110.2735         estimate D2E/DX2                !
 ! A12   A(8,4,9)              108.82           estimate D2E/DX2                !
 ! A13   A(1,6,4)              117.7023         estimate D2E/DX2                !
 ! A14   A(1,6,10)             120.6576         estimate D2E/DX2                !
 ! A15   A(4,6,10)             121.6307         estimate D2E/DX2                !
 ! A16   A(6,10,11)            115.4809         estimate D2E/DX2                !
 ! A17   A(6,10,12)            126.6034         estimate D2E/DX2                !
 ! A18   A(11,10,12)           117.9157         estimate D2E/DX2                !
 ! A19   A(10,12,13)           118.9385         estimate D2E/DX2                !
 ! A20   A(10,12,14)           120.5709         estimate D2E/DX2                !
 ! A21   A(13,12,14)           120.4881         estimate D2E/DX2                !
 ! A22   A(12,13,15)           121.5041         estimate D2E/DX2                !
 ! A23   A(12,13,16)           120.2209         estimate D2E/DX2                !
 ! A24   A(15,13,16)           118.2742         estimate D2E/DX2                !
 ! A25   A(13,16,17)           119.4408         estimate D2E/DX2                !
 ! A26   A(13,16,18)           122.7729         estimate D2E/DX2                !
 ! A27   A(17,16,18)           117.7862         estimate D2E/DX2                !
 ! A28   A(16,17,19)           122.2884         estimate D2E/DX2                !
 ! A29   A(16,17,20)           120.1327         estimate D2E/DX2                !
 ! A30   A(19,17,20)           117.5789         estimate D2E/DX2                !
 ! A31   A(16,18,21)           121.9567         estimate D2E/DX2                !
 ! A32   A(16,18,22)           119.7671         estimate D2E/DX2                !
 ! A33   A(21,18,22)           118.2761         estimate D2E/DX2                !
 ! A34   A(17,19,23)           105.5238         estimate D2E/DX2                !
 ! A35   A(17,20,24)           118.2318         estimate D2E/DX2                !
 ! A36   A(17,20,25)           120.4179         estimate D2E/DX2                !
 ! A37   A(24,20,25)           121.3502         estimate D2E/DX2                !
 ! A38   A(18,21,25)           119.3278         estimate D2E/DX2                !
 ! A39   A(18,21,26)           120.1994         estimate D2E/DX2                !
 ! A40   A(25,21,26)           120.4729         estimate D2E/DX2                !
 ! A41   A(20,25,21)           120.3785         estimate D2E/DX2                !
 ! A42   A(20,25,27)           119.5826         estimate D2E/DX2                !
 ! A43   A(21,25,27)           120.0389         estimate D2E/DX2                !
 ! D1    D(2,1,6,4)             -3.7348         estimate D2E/DX2                !
 ! D2    D(2,1,6,10)           177.3656         estimate D2E/DX2                !
 ! D3    D(3,1,6,4)            116.0361         estimate D2E/DX2                !
 ! D4    D(3,1,6,10)           -62.8635         estimate D2E/DX2                !
 ! D5    D(7,1,6,4)           -123.2291         estimate D2E/DX2                !
 ! D6    D(7,1,6,10)            57.8713         estimate D2E/DX2                !
 ! D7    D(5,4,6,1)            -61.0247         estimate D2E/DX2                !
 ! D8    D(5,4,6,10)           117.8636         estimate D2E/DX2                !
 ! D9    D(8,4,6,1)            179.1106         estimate D2E/DX2                !
 ! D10   D(8,4,6,10)            -2.0011         estimate D2E/DX2                !
 ! D11   D(9,4,6,1)             59.2694         estimate D2E/DX2                !
 ! D12   D(9,4,6,10)          -121.8423         estimate D2E/DX2                !
 ! D13   D(1,6,10,11)         -179.9            estimate D2E/DX2                !
 ! D14   D(1,6,10,12)            0.1198         estimate D2E/DX2                !
 ! D15   D(4,6,10,11)            1.2442         estimate D2E/DX2                !
 ! D16   D(4,6,10,12)         -178.736          estimate D2E/DX2                !
 ! D17   D(6,10,12,13)        -179.9162         estimate D2E/DX2                !
 ! D18   D(6,10,12,14)           0.6609         estimate D2E/DX2                !
 ! D19   D(11,10,12,13)          0.104          estimate D2E/DX2                !
 ! D20   D(11,10,12,14)       -179.3188         estimate D2E/DX2                !
 ! D21   D(10,12,13,15)          0.0672         estimate D2E/DX2                !
 ! D22   D(10,12,13,16)       -179.6004         estimate D2E/DX2                !
 ! D23   D(14,12,13,15)        179.4905         estimate D2E/DX2                !
 ! D24   D(14,12,13,16)         -0.177          estimate D2E/DX2                !
 ! D25   D(12,13,16,17)        178.5996         estimate D2E/DX2                !
 ! D26   D(12,13,16,18)         -1.4736         estimate D2E/DX2                !
 ! D27   D(15,13,16,17)         -1.0785         estimate D2E/DX2                !
 ! D28   D(15,13,16,18)        178.8483         estimate D2E/DX2                !
 ! D29   D(13,16,17,19)          0.0813         estimate D2E/DX2                !
 ! D30   D(13,16,17,20)       -179.8775         estimate D2E/DX2                !
 ! D31   D(18,16,17,19)       -179.8492         estimate D2E/DX2                !
 ! D32   D(18,16,17,20)          0.192          estimate D2E/DX2                !
 ! D33   D(13,16,18,21)        179.9746         estimate D2E/DX2                !
 ! D34   D(13,16,18,22)         -0.1411         estimate D2E/DX2                !
 ! D35   D(17,16,18,21)         -0.0974         estimate D2E/DX2                !
 ! D36   D(17,16,18,22)        179.7869         estimate D2E/DX2                !
 ! D37   D(16,17,19,23)          0.4372         estimate D2E/DX2                !
 ! D38   D(20,17,19,23)       -179.603          estimate D2E/DX2                !
 ! D39   D(16,17,20,24)        179.9326         estimate D2E/DX2                !
 ! D40   D(16,17,20,25)         -0.1551         estimate D2E/DX2                !
 ! D41   D(19,17,20,24)         -0.0281         estimate D2E/DX2                !
 ! D42   D(19,17,20,25)        179.8841         estimate D2E/DX2                !
 ! D43   D(16,18,21,25)         -0.0369         estimate D2E/DX2                !
 ! D44   D(16,18,21,26)        179.9179         estimate D2E/DX2                !
 ! D45   D(22,18,21,25)       -179.9229         estimate D2E/DX2                !
 ! D46   D(22,18,21,26)          0.0319         estimate D2E/DX2                !
 ! D47   D(17,20,25,21)          0.017          estimate D2E/DX2                !
 ! D48   D(17,20,25,27)       -179.9532         estimate D2E/DX2                !
 ! D49   D(24,20,25,21)        179.9265         estimate D2E/DX2                !
 ! D50   D(24,20,25,27)         -0.0438         estimate D2E/DX2                !
 ! D51   D(18,21,25,20)          0.079          estimate D2E/DX2                !
 ! D52   D(18,21,25,27)       -179.9509         estimate D2E/DX2                !
 ! D53   D(26,21,25,20)       -179.8757         estimate D2E/DX2                !
 ! D54   D(26,21,25,27)          0.0944         estimate D2E/DX2                !
 --------------------------------------------------------------------------------
 Trust Radius=3.00D-01 FncErr=1.00D-07 GrdErr=1.00D-06
 Number of steps in this run=    134 maximum allowed number of steps=    162.
 GradGradGradGradGradGradGradGradGradGradGradGradGradGradGradGradGradGrad

                          Input orientation:                          
 ---------------------------------------------------------------------
 Center     Atomic      Atomic             Coordinates (Angstroms)
 Number     Number       Type             X           Y           Z
 ---------------------------------------------------------------------
      1          6           0        3.702846    1.636063   -0.008222
      2          1           0        4.752507    1.921222    0.033387
      3          1           0        3.260803    2.050538   -0.919410
      4          6           0        4.840862   -0.576061   -0.023054
      5          1           0        5.404470   -0.357284   -0.934087
      6          7           0        3.603253    0.186666    0.001363
      7          1           0        3.189103    2.062478    0.858128
      8          1           0        4.616260   -1.641391    0.003367
      9          1           0        5.458120   -0.324231    0.843201
     10          6           0        2.415603   -0.411320    0.009530
     11          1           0        2.439214   -1.496702    0.018057
     12          6           0        1.189218    0.204677    0.007813
     13          6           0        0.005247   -0.605699    0.019553
     14          1           0        1.115769    1.280676   -0.011554
     15          8           0        0.068445   -1.858245    0.032536
     16          6           0       -1.342303    0.033685    0.009033
     17          6           0       -2.498826   -0.781495   -0.009258
     18          6           0       -1.522928    1.425505    0.018001
     19          8           0       -2.431249   -2.119730   -0.015994
     20          6           0       -3.770178   -0.196937   -0.021896
     21          6           0       -2.780034    2.000189    0.007495
     22          1           0       -0.660480    2.079179    0.035492
     23          1           0       -1.463365   -2.336803    0.001543
     24          1           0       -4.634849   -0.850395   -0.036917
     25          6           0       -3.908100    1.177355   -0.013430
     26          1           0       -2.886448    3.078118    0.016184
     27          1           0       -4.899878    1.615957   -0.022649
 ---------------------------------------------------------------------
                    Distance matrix (angstroms):
                    1          2          3          4          5
     1  C    0.000000
     2  H    1.088501   0.000000
     3  H    1.094283   1.774746   0.000000
     4  C    2.487728   2.499483   3.193597   0.000000
     5  H    2.779601   2.559815   3.223838   1.093388   0.000000
     6  N    1.452846   2.080984   2.106920   1.453968   2.101269
     7  H    1.093766   1.773241   1.779024   3.235224   3.738333
     8  H    3.402377   3.565344   4.039693   1.089070   1.774549
     9  H    2.765621   2.489126   3.684363   1.093080   1.778404
    10  C    2.418488   3.301884   2.763700   2.431066   3.134750
    11  H    3.378117   4.127198   3.759889   2.572388   3.316262
    12  C    2.892654   3.955276   2.925476   3.734301   4.355608
    13  C    4.324177   5.377918   4.305334   4.835893   5.488420
    14  H    2.611375   3.692991   2.453174   4.162201   4.682620
    15  O    5.041897   6.018705   5.135751   4.941968   5.626758
    16  C    5.293529   6.380447   5.110606   6.213240   6.823583
    17  C    6.656224   7.738755   6.482447   7.342575   7.968522
    18  C    5.230080   6.295003   4.914620   6.671265   7.216208
    19  O    7.192577   8.242456   7.113842   7.434148   8.083786
    20  C    7.694554   8.782131   7.435817   8.619382   9.221278
    21  C    6.493117   7.532999   6.111743   8.044628   8.569151
    22  H    4.385987   5.415292   4.035979   6.108886   6.607575
    23  H    6.517170   7.534511   6.512656   6.545540   7.208402
    24  H    8.700601   9.788220   8.457868   9.479691  10.091382
    25  C    7.624759   8.692620   7.278491   8.922942   9.482968
    26  H    6.745288   7.726082   6.302377   8.547858   9.024651
    27  H    8.602760   9.657373   8.221299   9.984335  10.531096
                    6          7          8          9         10
     6  N    0.000000
     7  H    2.103387   0.000000
     8  H    2.089972   4.060300   0.000000
     9  H    2.100057   3.293181   1.774531   0.000000
    10  C    1.329724   2.727287   2.521112   3.155868   0.000000
    11  H    2.046703   3.733071   2.181898   3.342057   1.085673
    12  C    2.414110   2.859021   3.892634   4.381911   1.372397
    13  C    3.684267   4.237844   4.725924   5.521906   2.418202
    14  H    2.717462   2.380395   4.559839   4.707690   2.133744
    15  O    4.083810   5.078600   4.553075   5.662065   2.757404
    16  C    4.947928   5.036925   6.189539   6.860736   3.784163
    17  C    6.178415   6.418183   7.166869   8.015533   4.928386
    18  C    5.273778   4.828539   6.862630   7.244140   4.345806
    19  O    6.460261   7.059979   7.063750   8.136595   5.139192
    20  C    7.383439   7.369600   8.509960   9.269633   6.189575
    21  C    6.635906   6.029764   8.244166   8.600495   5.728003
    22  H    4.664996   3.936534   6.456598   6.623144   3.957972
    23  H    5.660258   6.460099   6.119268   7.257120   4.330583
    24  H    8.303209   8.396438   9.284950  10.144924   7.064263
    25  C    7.576418   7.205092   8.978325   9.524424   6.520248
    26  H    7.104712   6.217131   8.863665   9.049406   6.347280
    27  H    8.622452   8.149035  10.058224  10.573654   7.591255
                   11         12         13         14         15
    11  H    0.000000
    12  C    2.111229   0.000000
    13  C    2.591927   1.434795   0.000000
    14  H    3.076721   1.078676   2.189209   0.000000
    15  O    2.398222   2.347849   1.254207   3.309329   0.000000
    16  C    4.079466   2.537290   1.491581   2.756361   2.360120
    17  C    4.989640   3.817656   2.510401   4.161472   2.784244
    18  C    4.923197   2.974267   2.541872   2.642834   3.649068
    19  O    4.910268   4.302467   2.868809   4.913666   2.513802
    20  C    6.344095   4.975720   3.797715   5.104500   4.183053
    21  C    6.282428   4.356469   3.814260   3.961734   4.796037
    22  H    4.732371   2.633611   2.766227   1.948045   4.004328
    23  H    3.992013   3.673604   2.270213   4.442776   1.605123
    24  H    7.103738   5.919032   4.646886   6.132839   4.810567
    25  C    6.887668   5.189336   4.300541   5.024932   5.002988
    26  H    7.020802   4.986761   4.683206   4.387403   5.753203
    27  H    7.971987   6.250579   5.384959   6.024993   6.062785
                   16         17         18         19         20
    16  C    0.000000
    17  C    1.415061   0.000000
    18  C    1.403520   2.413290   0.000000
    19  O    2.413219   1.339956   3.659903   0.000000
    20  C    2.439000   1.399359   2.772010   2.343053   0.000000
    21  C    2.436023   2.795912   1.382276   4.134722   2.410106
    22  H    2.156299   3.400731   1.082318   4.557313   3.854117
    23  H    2.373590   1.868496   3.762816   0.992082   3.146580
    24  H    3.409482   2.137313   3.855747   2.543128   1.083923
    25  C    2.809234   2.413124   2.398252   3.612736   1.381221
    26  H    3.413649   3.879112   2.142503   5.217841   3.392405
    27  H    3.893703   3.393083   3.382560   4.477670   2.136073
                   21         22         23         24         25
    21  C    0.000000
    22  H    2.121210   0.000000
    23  H    4.532455   4.488504   0.000000
    24  H    3.401197   4.937940   3.502741   0.000000
    25  C    1.396434   3.370863   4.280918   2.154179   0.000000
    26  H    1.083204   2.439915   5.598817   4.300342   2.158136
    27  H    2.154596   4.265026   5.237797   2.480592   1.084472
                   26         27
    26  H    0.000000
    27  H    2.488639   0.000000
 Stoichiometry    C11H13NO2
 Framework group  C1[X(C11H13NO2)]
 Deg. of freedom    75
 Full point group                 C1      NOp   1
 Largest Abelian subgroup         C1      NOp   1
 Largest concise Abelian subgroup C1      NOp   1
                         Standard orientation:                         
 ---------------------------------------------------------------------
 Center     Atomic      Atomic             Coordinates (Angstroms)
 Number     Number       Type             X           Y           Z
 ---------------------------------------------------------------------
      1          6           0        3.702846    1.636063   -0.008222
      2          1           0        4.752507    1.921222    0.033387
      3          1           0        3.260803    2.050538   -0.919410
      4          6           0        4.840862   -0.576061   -0.023054
      5          1           0        5.404470   -0.357284   -0.934087
      6          7           0        3.603253    0.186666    0.001363
      7          1           0        3.189103    2.062478    0.858128
      8          1           0        4.616260   -1.641391    0.003367
      9          1           0        5.458120   -0.324231    0.843201
     10          6           0        2.415603   -0.411320    0.009530
     11          1           0        2.439214   -1.496702    0.018057
     12          6           0        1.189218    0.204677    0.007813
     13          6           0        0.005247   -0.605699    0.019553
     14          1           0        1.115769    1.280676   -0.011554
     15          8           0        0.068445   -1.858245    0.032536
     16          6           0       -1.342303    0.033685    0.009033
     17          6           0       -2.498826   -0.781495   -0.009258
     18          6           0       -1.522928    1.425505    0.018001
     19          8           0       -2.431249   -2.119730   -0.015994
     20          6           0       -3.770178   -0.196937   -0.021896
     21          6           0       -2.780034    2.000189    0.007495
     22          1           0       -0.660480    2.079179    0.035492
     23          1           0       -1.463365   -2.336803    0.001543
     24          1           0       -4.634849   -0.850395   -0.036917
     25          6           0       -3.908100    1.177355   -0.013430
     26          1           0       -2.886448    3.078118    0.016184
     27          1           0       -4.899878    1.615957   -0.022649
 ---------------------------------------------------------------------
 Rotational constants (GHZ):      1.6181288      0.3217178      0.2692896
 Standard basis: 6-311++G(d,p) (5D, 7F)
 There are   413 symmetry adapted cartesian basis functions of A   symmetry.
 There are   399 symmetry adapted basis functions of A   symmetry.
   399 basis functions,   621 primitive gaussians,   413 cartesian basis functions
    51 alpha electrons       51 beta electrons
       nuclear repulsion energy       837.8526951868 Hartrees.
 NAtoms=   27 NActive=   27 NUniq=   27 SFac= 1.00D+00 NAtFMM=   60 NAOKFM=F Big=F
 Integral buffers will be    131072 words long.
 Raffenetti 2 integral format.
 Two-electron integral symmetry is turned on.
 Nuclear repulsion after empirical dispersion term =      837.8377552537 Hartrees.
 ------------------------------------------------------------------------------
 Polarizable Continuum Model (PCM)
 =================================
 Model                : PCM (using non-symmetric T matrix).
 Atomic radii         : UFF (Universal Force Field).
 Polarization charges : Total charges.
 Charge compensation  : None.
 Solution method      : On-the-fly selection.
 Cavity type          : Scaled VdW (van der Waals Surface) (Alpha=1.100).
 Cavity algorithm     : GePol (No added spheres)
                        Default sphere list used, NSphG=   27.
                        Lebedev-Laikov grids with approx.  5.0 points / Ang**2.
                        Smoothing algorithm: Karplus/York (Gamma=1.0000).
                        Polarization charges: spherical gaussians, with
                                              point-specific exponents (IZeta= 3).
                        Self-potential: point-specific (ISelfS= 7).
                        Self-field    : sphere-specific E.n sum rule (ISelfD= 2).
 1st derivatives      : Analytical E(r).r(x)/FMM algorithm (CHGder, D1EAlg=3).
                        Cavity 1st derivative terms included.
 Solvent              : Dichloromethane, Eps=   8.930000 Eps(inf)=   2.028346
 ------------------------------------------------------------------------------
 One-electron integrals computed using PRISM.
 NBasis=   399 RedAO= T EigKep=  1.62D-06  NBF=   399
 NBsUse=   396 1.00D-06 EigRej=  7.57D-07 NBFU=   396
 ExpMin= 3.60D-02 ExpMax= 8.59D+03 ExpMxC= 1.30D+03 IAcc=3 IRadAn=         5 AccDes= 0.00D+00
 Harris functional with IExCor= 4639 and IRadAn=       5 diagonalized for initial guess.
 HarFok:  IExCor= 4639 AccDes= 0.00D+00 IRadAn=         5 IDoV= 1 UseB2=F ITyADJ=14
 ICtDFT=  3500011 ScaDFX=  1.000000  1.000000  1.000000  1.000000
 FoFCou: FMM=F IPFlag=           0 FMFlag=      100000 FMFlg1=           0
         NFxFlg=           0 DoJE=T BraDBF=F KetDBF=T FulRan=T
         wScrn=  0.000000 ICntrl=     500 IOpCl=  0 I1Cent=   200000004 NGrid=           0
         NMat0=    1 NMatS0=      1 NMatT0=    0 NMatD0=    1 NMtDS0=    0 NMtDT0=    0
 Petite list used in FoFCou.
 Requested convergence on RMS density matrix=1.00D-08 within 128 cycles.
 Requested convergence on MAX density matrix=1.00D-06.
 Requested convergence on             energy=1.00D-06.
 No special actions if energy rises.
 Inv3:  Mode=1 IEnd=    13054188.
 Iteration    1 A*A^-1 deviation from unit magnitude is 3.77D-15 for   2080.
 Iteration    1 A*A^-1 deviation from orthogonality  is 3.17D-15 for    978    606.
 Iteration    1 A^-1*A deviation from unit magnitude is 3.55D-15 for   2080.
 Iteration    1 A^-1*A deviation from orthogonality  is 2.85D-10 for    621    615.
 Iteration    2 A*A^-1 deviation from unit magnitude is 2.66D-15 for   1561.
 Iteration    2 A*A^-1 deviation from orthogonality  is 5.51D-15 for   2076    501.
 Iteration    2 A^-1*A deviation from unit magnitude is 8.88D-16 for      9.
 Iteration    2 A^-1*A deviation from orthogonality  is 3.50D-16 for   2072    513.
 Error on total polarization charges =  0.01405
 SCF Done:  E(RwB97XD) =  -632.164220451     A.U. after   17 cycles
            NFock= 17  Conv=0.27D-08     -V/T= 2.0040

 **********************************************************************

            Population analysis using the SCF density.

 **********************************************************************

 Orbital symmetries:
       Occupied  (A) (A) (A) (A) (A) (A) (A) (A) (A) (A) (A) (A)
                 (A) (A) (A) (A) (A) (A) (A) (A) (A) (A) (A) (A)
                 (A) (A) (A) (A) (A) (A) (A) (A) (A) (A) (A) (A)
                 (A) (A) (A) (A) (A) (A) (A) (A) (A) (A) (A) (A)
                 (A) (A) (A)
       Virtual   (A) (A) (A) (A) (A) (A) (A) (A) (A) (A) (A) (A)
                 (A) (A) (A) (A) (A) (A) (A) (A) (A) (A) (A) (A)
                 (A) (A) (A) (A) (A) (A) (A) (A) (A) (A) (A) (A)
                 (A) (A) (A) (A) (A) (A) (A) (A) (A) (A) (A) (A)
                 (A) (A) (A) (A) (A) (A) (A) (A) (A) (A) (A) (A)
                 (A) (A) (A) (A) (A) (A) (A) (A) (A) (A) (A) (A)
                 (A) (A) (A) (A) (A) (A) (A) (A) (A) (A) (A) (A)
                 (A) (A) (A) (A) (A) (A) (A) (A) (A) (A) (A) (A)
                 (A) (A) (A) (A) (A) (A) (A) (A) (A) (A) (A) (A)
                 (A) (A) (A) (A) (A) (A) (A) (A) (A) (A) (A) (A)
                 (A) (A) (A) (A) (A) (A) (A) (A) (A) (A) (A) (A)
                 (A) (A) (A) (A) (A) (A) (A) (A) (A) (A) (A) (A)
                 (A) (A) (A) (A) (A) (A) (A) (A) (A) (A) (A) (A)
                 (A) (A) (A) (A) (A) (A) (A) (A) (A) (A) (A) (A)
                 (A) (A) (A) (A) (A) (A) (A) (A) (A) (A) (A) (A)
                 (A) (A) (A) (A) (A) (A) (A) (A) (A) (A) (A) (A)
                 (A) (A) (A) (A) (A) (A) (A) (A) (A) (A) (A) (A)
                 (A) (A) (A) (A) (A) (A) (A) (A) (A) (A) (A) (A)
                 (A) (A) (A) (A) (A) (A) (A) (A) (A) (A) (A) (A)
                 (A) (A) (A) (A) (A) (A) (A) (A) (A) (A) (A) (A)
                 (A) (A) (A) (A) (A) (A) (A) (A) (A) (A) (A) (A)
                 (A) (A) (A) (A) (A) (A) (A) (A) (A) (A) (A) (A)
                 (A) (A) (A) (A) (A) (A) (A) (A) (A) (A) (A) (A)
                 (A) (A) (A) (A) (A) (A) (A) (A) (A) (A) (A) (A)
                 (A) (A) (A) (A) (A) (A) (A) (A) (A) (A) (A) (A)
                 (A) (A) (A) (A) (A) (A) (A) (A) (A) (A) (A) (A)
                 (A) (A) (A) (A) (A) (A) (A) (A) (A) (A) (A) (A)
                 (A) (A) (A) (A) (A) (A) (A) (A) (A) (A) (A) (A)
                 (A) (A) (A) (A) (A) (A) (A) (A) (A)
 The electronic state is 1-A.
 Alpha  occ. eigenvalues --  -19.26461 -19.22874 -14.48951 -10.37908 -10.36111
 Alpha  occ. eigenvalues --  -10.34754 -10.32428 -10.32296 -10.30167 -10.30106
 Alpha  occ. eigenvalues --  -10.29993 -10.28764 -10.28717 -10.27251  -1.17208
 Alpha  occ. eigenvalues --   -1.13104  -1.08470  -0.96582  -0.89412  -0.86817
 Alpha  occ. eigenvalues --   -0.84656  -0.84092  -0.80069  -0.74287  -0.70627
 Alpha  occ. eigenvalues --   -0.69269  -0.65064  -0.62872  -0.61113  -0.59452
 Alpha  occ. eigenvalues --   -0.57944  -0.57484  -0.56083  -0.53434  -0.52409
 Alpha  occ. eigenvalues --   -0.52242  -0.52030  -0.50361  -0.49843  -0.48242
 Alpha  occ. eigenvalues --   -0.47863  -0.47783  -0.46641  -0.46071  -0.43375
 Alpha  occ. eigenvalues --   -0.43155  -0.41446  -0.34669  -0.34495  -0.30952
 Alpha  occ. eigenvalues --   -0.29011
 Alpha virt. eigenvalues --   -0.00361   0.03870   0.04631   0.05285   0.05310
 Alpha virt. eigenvalues --    0.06134   0.06276   0.06802   0.07697   0.07915
 Alpha virt. eigenvalues --    0.08058   0.08906   0.09373   0.09930   0.10550
 Alpha virt. eigenvalues --    0.11274   0.11816   0.12954   0.13408   0.13766
 Alpha virt. eigenvalues --    0.14273   0.14723   0.15285   0.15850   0.16149
 Alpha virt. eigenvalues --    0.16382   0.16583   0.16676   0.16996   0.17260
 Alpha virt. eigenvalues --    0.17974   0.18347   0.18974   0.19039   0.19189
 Alpha virt. eigenvalues --    0.19909   0.20007   0.20637   0.20995   0.21563
 Alpha virt. eigenvalues --    0.21755   0.21992   0.22063   0.22760   0.23015
 Alpha virt. eigenvalues --    0.24104   0.24632   0.24947   0.25256   0.25554
 Alpha virt. eigenvalues --    0.26226   0.26687   0.27002   0.27398   0.27573
 Alpha virt. eigenvalues --    0.28291   0.28393   0.29270   0.29649   0.29842
 Alpha virt. eigenvalues --    0.30390   0.31155   0.32037   0.32817   0.33111
 Alpha virt. eigenvalues --    0.33612   0.34255   0.34665   0.35279   0.35445
 Alpha virt. eigenvalues --    0.35877   0.36136   0.37401   0.37900   0.37971
 Alpha virt. eigenvalues --    0.38351   0.38829   0.39069   0.39598   0.39764
 Alpha virt. eigenvalues --    0.40752   0.41838   0.42525   0.43085   0.43724
 Alpha virt. eigenvalues --    0.44287   0.45236   0.46252   0.46564   0.48425
 Alpha virt. eigenvalues --    0.49820   0.50766   0.52084   0.52590   0.53321
 Alpha virt. eigenvalues --    0.55292   0.57895   0.58296   0.60211   0.60863
 Alpha virt. eigenvalues --    0.61121   0.62215   0.62556   0.63112   0.64393
 Alpha virt. eigenvalues --    0.64799   0.65383   0.66033   0.66868   0.68394
 Alpha virt. eigenvalues --    0.68568   0.69666   0.69741   0.70349   0.71331
 Alpha virt. eigenvalues --    0.71559   0.72289   0.72833   0.73610   0.74277
 Alpha virt. eigenvalues --    0.74732   0.75324   0.76976   0.77548   0.79117
 Alpha virt. eigenvalues --    0.79802   0.80581   0.80963   0.82850   0.84172
 Alpha virt. eigenvalues --    0.85193   0.86814   0.87564   0.88588   0.89173
 Alpha virt. eigenvalues --    0.91113   0.94038   0.94551   0.94770   0.95203
 Alpha virt. eigenvalues --    0.96657   0.97409   0.98872   0.99574   1.00091
 Alpha virt. eigenvalues --    1.01632   1.03661   1.04242   1.05549   1.06465
 Alpha virt. eigenvalues --    1.07584   1.07771   1.08904   1.11484   1.11712
 Alpha virt. eigenvalues --    1.13400   1.14568   1.15143   1.16219   1.17143
 Alpha virt. eigenvalues --    1.17742   1.18583   1.18764   1.20917   1.21432
 Alpha virt. eigenvalues --    1.22222   1.28031   1.31232   1.31930   1.32762
 Alpha virt. eigenvalues --    1.33747   1.36408   1.38961   1.39796   1.44247
 Alpha virt. eigenvalues --    1.44927   1.46679   1.51693   1.51865   1.52734
 Alpha virt. eigenvalues --    1.52908   1.55535   1.57527   1.58837   1.59471
 Alpha virt. eigenvalues --    1.60361   1.61538   1.63745   1.64070   1.64857
 Alpha virt. eigenvalues --    1.65261   1.65546   1.67344   1.67884   1.69637
 Alpha virt. eigenvalues --    1.71283   1.72805   1.74284   1.74793   1.75908
 Alpha virt. eigenvalues --    1.77636   1.78223   1.81287   1.81845   1.82243
 Alpha virt. eigenvalues --    1.82555   1.83846   1.84237   1.86443   1.87582
 Alpha virt. eigenvalues --    1.90348   1.91454   1.93191   1.96565   1.98874
 Alpha virt. eigenvalues --    1.99368   1.99928   2.01511   2.01860   2.03112
 Alpha virt. eigenvalues --    2.04834   2.04867   2.06203   2.07486   2.08008
 Alpha virt. eigenvalues --    2.09785   2.11624   2.12501   2.14217   2.15158
 Alpha virt. eigenvalues --    2.17966   2.19579   2.22698   2.25775   2.25968
 Alpha virt. eigenvalues --    2.26705   2.30288   2.33302   2.35325   2.37604
 Alpha virt. eigenvalues --    2.40549   2.42163   2.46160   2.47779   2.48420
 Alpha virt. eigenvalues --    2.51452   2.54693   2.55937   2.56360   2.57269
 Alpha virt. eigenvalues --    2.59175   2.60145   2.62077   2.63768   2.64475
 Alpha virt. eigenvalues --    2.67413   2.70235   2.71327   2.72833   2.73592
 Alpha virt. eigenvalues --    2.76493   2.77652   2.80291   2.81349   2.81640
 Alpha virt. eigenvalues --    2.82700   2.83639   2.84252   2.85563   2.86171
 Alpha virt. eigenvalues --    2.86477   2.89014   2.90316   2.90768   2.92235
 Alpha virt. eigenvalues --    2.94273   2.95124   2.96663   2.97826   2.99076
 Alpha virt. eigenvalues --    3.03395   3.03804   3.08189   3.13857   3.16593
 Alpha virt. eigenvalues --    3.17976   3.18529   3.21384   3.21676   3.26080
 Alpha virt. eigenvalues --    3.28567   3.29442   3.29587   3.31673   3.37922
 Alpha virt. eigenvalues --    3.41418   3.46603   3.50516   3.56526   3.60457
 Alpha virt. eigenvalues --    3.62759   3.64484   3.69101   3.69451   3.72551
 Alpha virt. eigenvalues --    3.75314   3.80767   3.81976   3.83462   3.86837
 Alpha virt. eigenvalues --    3.89393   3.94984   3.95716   4.02393   4.09481
 Alpha virt. eigenvalues --    4.12549   4.14469   4.18279   4.29042   4.29615
 Alpha virt. eigenvalues --    4.40106   4.64300   4.94331   4.98576   5.12919
 Alpha virt. eigenvalues --    5.18032   5.18897   5.41737   5.61954   5.88233
 Alpha virt. eigenvalues --    5.93853  23.72853  23.94895  24.04513  24.06175
 Alpha virt. eigenvalues --   24.06555  24.08307  24.09669  24.16707  24.24273
 Alpha virt. eigenvalues --   24.27631  24.33219  35.71445  50.12712  50.19241
          Condensed to atoms (all electrons):
               1          2          3          4          5          6
     1  C    5.244330   0.388698   0.415502  -0.056742   0.003362   0.235759
     2  H    0.388698   0.454085  -0.015860   0.003135  -0.005246  -0.046146
     3  H    0.415502  -0.015860   0.516240  -0.002249  -0.001127  -0.041221
     4  C   -0.056742   0.003135  -0.002249   5.171086   0.404037   0.243288
     5  H    0.003362  -0.005246  -0.001127   0.404037   0.534393  -0.043833
     6  N    0.235759  -0.046146  -0.041221   0.243288  -0.043833   6.798658
     7  H    0.415108  -0.019612  -0.053000   0.004054   0.002471  -0.035887
     8  H   -0.002072   0.003644  -0.001393   0.412273  -0.027954  -0.098258
     9  H   -0.002941  -0.005769   0.002675   0.404930  -0.058004  -0.041556
    10  C    0.174457   0.027897  -0.009196  -0.065721  -0.020856   0.201139
    11  H    0.005934  -0.001179  -0.000321  -0.038407   0.003765  -0.058593
    12  C    0.136758   0.022238  -0.013542  -0.038355   0.007373  -0.205850
    13  C   -0.270013  -0.020007   0.009121  -0.100433   0.000013   0.008263
    14  H    0.020859   0.002937  -0.005510  -0.007746   0.001206  -0.031127
    15  O   -0.001715   0.000034   0.000371  -0.001132  -0.000038   0.002711
    16  C   -0.195155  -0.005188  -0.001346   0.004425  -0.000605  -0.020890
    17  C   -0.019730   0.000737  -0.001295  -0.003304  -0.000367   0.002496
    18  C   -0.029217  -0.006034   0.002848  -0.012189   0.000297   0.001098
    19  O   -0.000179  -0.000010   0.000051   0.000321   0.000004  -0.000155
    20  C    0.004013   0.000203  -0.000861  -0.000573  -0.000001   0.000595
    21  C   -0.001970  -0.000246   0.001566   0.000474   0.000009  -0.000192
    22  H   -0.001623  -0.000199  -0.001095  -0.001579  -0.000134  -0.004846
    23  H   -0.001134  -0.000101   0.000045   0.000023   0.000011   0.000068
    24  H    0.000042   0.000002  -0.000015   0.000012   0.000000  -0.000004
    25  C   -0.004892  -0.000207   0.000509  -0.000490  -0.000007   0.000118
    26  H   -0.000216  -0.000017  -0.000015   0.000071   0.000003   0.000099
    27  H   -0.000112  -0.000005   0.000019  -0.000001   0.000000  -0.000012
               7          8          9         10         11         12
     1  C    0.415108  -0.002072  -0.002941   0.174457   0.005934   0.136758
     2  H   -0.019612   0.003644  -0.005769   0.027897  -0.001179   0.022238
     3  H   -0.053000  -0.001393   0.002675  -0.009196  -0.000321  -0.013542
     4  C    0.004054   0.412273   0.404930  -0.065721  -0.038407  -0.038355
     5  H    0.002471  -0.027954  -0.058004  -0.020856   0.003765   0.007373
     6  N   -0.035887  -0.098258  -0.041556   0.201139  -0.058593  -0.205850
     7  H    0.525608  -0.002231  -0.001234   0.023706   0.001081  -0.030373
     8  H   -0.002231   0.531458  -0.026029   0.063925  -0.011056   0.002163
     9  H   -0.001234  -0.026029   0.534051  -0.021090   0.002627   0.011443
    10  C    0.023706   0.063925  -0.021090  11.769673   0.320281   2.988104
    11  H    0.001081  -0.011056   0.002627   0.320281   0.459408   0.060920
    12  C   -0.030373   0.002163   0.011443   2.988104   0.060920  11.821597
    13  C   -0.019077   0.001207   0.002076  -3.971827   0.097491   1.294472
    14  H    0.005405  -0.003289   0.000501   0.088722   0.000421   0.632986
    15  O    0.000474   0.000424   0.000028   0.006342   0.008304  -0.231667
    16  C   -0.004846   0.005756   0.000269  -2.822080  -0.073582  -4.525617
    17  C   -0.001767   0.003364  -0.000276  -1.303782  -0.064108  -3.025043
    18  C   -0.002092  -0.003420   0.000437  -1.593529   0.044439  -1.387157
    19  O    0.000041  -0.000096   0.000004   0.006506   0.000223  -0.046077
    20  C   -0.000889   0.000073   0.000001  -0.206225  -0.002605  -0.082517
    21  C    0.002264  -0.000210   0.000002   0.111887   0.002933  -0.254292
    22  H   -0.003798   0.000542  -0.000052  -0.144274   0.001942  -0.110984
    23  H   -0.000007   0.000031   0.000026  -0.014608   0.000704   0.006231
    24  H   -0.000013   0.000004   0.000000   0.000711  -0.000218   0.004287
    25  C    0.000321  -0.000015   0.000001  -0.182657  -0.000426  -0.568961
    26  H    0.000094  -0.000003   0.000002   0.005464  -0.000199   0.004602
    27  H    0.000008   0.000000   0.000000  -0.002192   0.000026  -0.011472
              13         14         15         16         17         18
     1  C   -0.270013   0.020859  -0.001715  -0.195155  -0.019730  -0.029217
     2  H   -0.020007   0.002937   0.000034  -0.005188   0.000737  -0.006034
     3  H    0.009121  -0.005510   0.000371  -0.001346  -0.001295   0.002848
     4  C   -0.100433  -0.007746  -0.001132   0.004425  -0.003304  -0.012189
     5  H    0.000013   0.001206  -0.000038  -0.000605  -0.000367   0.000297
     6  N    0.008263  -0.031127   0.002711  -0.020890   0.002496   0.001098
     7  H   -0.019077   0.005405   0.000474  -0.004846  -0.001767  -0.002092
     8  H    0.001207  -0.003289   0.000424   0.005756   0.003364  -0.003420
     9  H    0.002076   0.000501   0.000028   0.000269  -0.000276   0.000437
    10  C   -3.971827   0.088722   0.006342  -2.822080  -1.303782  -1.593529
    11  H    0.097491   0.000421   0.008304  -0.073582  -0.064108   0.044439
    12  C    1.294472   0.632986  -0.231667  -4.525617  -3.025043  -1.387157
    13  C   13.150196  -0.067057   0.899186   0.980042  -4.124451   0.623884
    14  H   -0.067057   0.578936  -0.014030  -0.201873  -0.029844  -0.058857
    15  O    0.899186  -0.014030   8.245769  -0.151694  -0.111044  -0.225198
    16  C    0.980042  -0.201873  -0.151694  16.481448   1.491219  -2.723909
    17  C   -4.124451  -0.029844  -0.111044   1.491219  15.743205  -3.629145
    18  C    0.623884  -0.058857  -0.225198  -2.723909  -3.629145  13.469165
    19  O   -0.062162  -0.001027  -0.006439   0.092023   0.350513  -0.026503
    20  C   -0.772031   0.015909  -0.061944  -2.285904   0.198265   1.228004
    21  C   -0.274420  -0.080161   0.004527  -1.505922   0.205600   0.949040
    22  H    0.009737  -0.013859  -0.000424  -0.066344   0.030311   0.666969
    23  H    0.034157  -0.001006   0.074533  -0.137175  -0.001444   0.035967
    24  H    0.000799   0.000866   0.001223  -0.082678  -0.092081   0.004047
    25  C   -0.804613  -0.018602  -0.030908  -0.286395  -0.132048   0.477747
    26  H   -0.001775   0.002976   0.000691   0.032026   0.030818  -0.068207
    27  H   -0.006597  -0.001324  -0.000410   0.070938   0.032309  -0.044165
              19         20         21         22         23         24
     1  C   -0.000179   0.004013  -0.001970  -0.001623  -0.001134   0.000042
     2  H   -0.000010   0.000203  -0.000246  -0.000199  -0.000101   0.000002
     3  H    0.000051  -0.000861   0.001566  -0.001095   0.000045  -0.000015
     4  C    0.000321  -0.000573   0.000474  -0.001579   0.000023   0.000012
     5  H    0.000004  -0.000001   0.000009  -0.000134   0.000011   0.000000
     6  N   -0.000155   0.000595  -0.000192  -0.004846   0.000068  -0.000004
     7  H    0.000041  -0.000889   0.002264  -0.003798  -0.000007  -0.000013
     8  H   -0.000096   0.000073  -0.000210   0.000542   0.000031   0.000004
     9  H    0.000004   0.000001   0.000002  -0.000052   0.000026   0.000000
    10  C    0.006506  -0.206225   0.111887  -0.144274  -0.014608   0.000711
    11  H    0.000223  -0.002605   0.002933   0.001942   0.000704  -0.000218
    12  C   -0.046077  -0.082517  -0.254292  -0.110984   0.006231   0.004287
    13  C   -0.062162  -0.772031  -0.274420   0.009737   0.034157   0.000799
    14  H   -0.001027   0.015909  -0.080161  -0.013859  -0.001006   0.000866
    15  O   -0.006439  -0.061944   0.004527  -0.000424   0.074533   0.001223
    16  C    0.092023  -2.285904  -1.505922  -0.066344  -0.137175  -0.082678
    17  C    0.350513   0.198265   0.205600   0.030311  -0.001444  -0.092081
    18  C   -0.026503   1.228004   0.949040   0.666969   0.035967   0.004047
    19  O    8.184087  -0.383124   0.007043  -0.002885   0.249105  -0.023244
    20  C   -0.383124   8.024283  -0.229988   0.041921   0.069597   0.534857
    21  C    0.007043  -0.229988   6.975673  -0.040998   0.009410  -0.001528
    22  H   -0.002885   0.041921  -0.040998   0.520904   0.001869  -0.000765
    23  H    0.249105   0.069597   0.009410   0.001869   0.297808   0.002026
    24  H   -0.023244   0.534857  -0.001528  -0.000765   0.002026   0.446262
    25  C    0.013452   0.512685   0.406101   0.036071  -0.004057  -0.031938
    26  H    0.000274   0.013681   0.370156  -0.015775   0.000303   0.001531
    27  H    0.000666  -0.086581  -0.036847   0.002186  -0.000382  -0.009648
              25         26         27
     1  C   -0.004892  -0.000216  -0.000112
     2  H   -0.000207  -0.000017  -0.000005
     3  H    0.000509  -0.000015   0.000019
     4  C   -0.000490   0.000071  -0.000001
     5  H   -0.000007   0.000003   0.000000
     6  N    0.000118   0.000099  -0.000012
     7  H    0.000321   0.000094   0.000008
     8  H   -0.000015  -0.000003   0.000000
     9  H    0.000001   0.000002   0.000000
    10  C   -0.182657   0.005464  -0.002192
    11  H   -0.000426  -0.000199   0.000026
    12  C   -0.568961   0.004602  -0.011472
    13  C   -0.804613  -0.001775  -0.006597
    14  H   -0.018602   0.002976  -0.001324
    15  O   -0.030908   0.000691  -0.000410
    16  C   -0.286395   0.032026   0.070938
    17  C   -0.132048   0.030818   0.032309
    18  C    0.477747  -0.068207  -0.044165
    19  O    0.013452   0.000274   0.000666
    20  C    0.512685   0.013681  -0.086581
    21  C    0.406101   0.370156  -0.036847
    22  H    0.036071  -0.015775   0.002186
    23  H   -0.004057   0.000303  -0.000382
    24  H   -0.031938   0.001531  -0.009648
    25  C    6.681268  -0.065829   0.425004
    26  H   -0.065829   0.445949  -0.007956
    27  H    0.425004  -0.007956   0.444999
 Mulliken charges:
               1
     1  C   -0.457109
     2  H    0.222217
     3  H    0.199101
     4  C   -0.319207
     5  H    0.201229
     6  N    0.134279
     7  H    0.194191
     8  H    0.151163
     9  H    0.197877
    10  C    0.569224
    11  H    0.240193
    12  C   -0.461266
    13  C   -0.616180
    14  H    0.183588
    15  O   -0.407974
    16  C    1.933058
    17  C    0.450892
    18  C   -1.694321
    19  O   -0.352411
    20  C   -0.530845
    21  C   -0.619910
    22  H    0.097182
    23  H    0.378000
    24  H    0.245463
    25  C   -0.421231
    26  H    0.251250
    27  H    0.231549
 Sum of Mulliken charges =   0.00000
 Mulliken charges with hydrogens summed into heavy atoms:
               1
     1  C    0.158400
     4  C    0.231062
     6  N    0.134279
    10  C    0.809417
    12  C   -0.277678
    13  C   -0.616180
    15  O   -0.407974
    16  C    1.933058
    17  C    0.450892
    18  C   -1.597139
    19  O    0.025588
    20  C   -0.285382
    21  C   -0.368660
    25  C   -0.189683
 Electronic spatial extent (au):  <R**2>=           3935.8666
 Charge=              0.0000 electrons
 Dipole moment (field-independent basis, Debye):
    X=              7.9066    Y=              5.1191    Z=             -0.0643  Tot=              9.4194
 Quadrupole moment (field-independent basis, Debye-Ang):
   XX=            -50.7139   YY=            -83.9725   ZZ=            -87.7123
   XY=             -4.8315   XZ=             -0.1348   YZ=              0.0963
 Traceless Quadrupole moment (field-independent basis, Debye-Ang):
   XX=             23.4190   YY=             -9.8396   ZZ=            -13.5794
   XY=             -4.8315   XZ=             -0.1348   YZ=              0.0963
 Octapole moment (field-independent basis, Debye-Ang**2):
  XXX=            134.5488  YYY=             22.6496  ZZZ=             -0.2150  XYY=             25.8967
  XXY=             24.2663  XXZ=             -0.8500  XZZ=             14.6087  YZZ=             -6.5602
  YYZ=              0.0740  XYZ=              0.1520
 Hexadecapole moment (field-independent basis, Debye-Ang**3):
 XXXX=          -3377.7831 YYYY=           -879.9338 ZZZZ=           -110.0389 XXXY=            -51.7404
 XXXZ=              1.9389 YYYX=            -30.0605 YYYZ=              0.5241 ZZZX=             -1.2427
 ZZZY=             -0.3115 XXYY=           -813.3545 XXZZ=           -767.6169 YYZZ=           -176.1276
 XXYZ=              0.1150 YYXZ=             -0.4422 ZZXY=             18.3327
 N-N= 8.378377552537D+02 E-N=-3.149972477749D+03  KE= 6.296256826678D+02
 D1PCM: PCM CHGder 1st derivatives, ID1Alg=3 FixD1E=F DoIter=F DoCFld=F I1PDM=0.
 Calling FoFJK, ICntrl=      2127 FMM=F ISym2X=0 I1Cent= 0 IOpClX= 0 NMat=1 NMatS=1 NMatT=0.
 ***** Axes restored to original set *****
 -------------------------------------------------------------------
 Center     Atomic                   Forces (Hartrees/Bohr)
 Number     Number              X              Y              Z
 -------------------------------------------------------------------
      1        6           0.000002817   -0.000041148   -0.000070912
      2        1           0.000012530   -0.000004937   -0.000033394
      3        1          -0.000011600   -0.000013178    0.000007583
      4        6           0.000066036   -0.000041572   -0.000070809
      5        1           0.000026666    0.000014433    0.000010826
      6        7          -0.000028925    0.000165644    0.000273698
      7        1           0.000067739    0.000006603    0.000013356
      8        1          -0.000012751    0.000012840    0.000019022
      9        1          -0.000001672    0.000009383   -0.000013679
     10        6          -0.000233559   -0.000084639   -0.000134608
     11        1           0.000042552    0.000012234    0.000009053
     12        6          -0.000097366   -0.000123595    0.000056498
     13        6           0.000341317   -0.000158652   -0.000335030
     14        1          -0.000014979   -0.000017980    0.000031693
     15        8           0.000015994    0.000134008    0.000095571
     16        6          -0.000199843   -0.000036925    0.000099213
     17        6           0.000113698    0.000529965   -0.000027351
     18        6          -0.000071048    0.000035651    0.000028069
     19        8           0.000100853   -0.000389353   -0.000008663
     20        6           0.000051965   -0.000160769    0.000000441
     21        6           0.000065676   -0.000044182   -0.000013450
     22        1          -0.000002189    0.000012494   -0.000003960
     23        1          -0.000190127    0.000126334    0.000067902
     24        1          -0.000000457    0.000021866    0.000005751
     25        6          -0.000046429    0.000017732    0.000004134
     26        1          -0.000010616    0.000008217   -0.000012694
     27        1           0.000013719    0.000009528    0.000001740
 -------------------------------------------------------------------
 Cartesian Forces:  Max     0.000529965 RMS     0.000118231

 GradGradGradGradGradGradGradGradGradGradGradGradGradGradGradGradGradGrad
 Berny optimization.
 FormGI is forming the generalized inverse of G from B-inverse, IUseBI=4.
 Internal  Forces:  Max     0.000257768 RMS     0.000061246
 Search for a local minimum.
 Step number   1 out of a maximum of  134
 All quantities printed in internal units (Hartrees-Bohrs-Radians)
 Mixed Optimization -- En-DIIS/RFO-DIIS
 Second derivative matrix not updated -- first step.
 ITU=  0
     Eigenvalues ---    0.00877   0.00978   0.00993   0.01265   0.01416
     Eigenvalues ---    0.01628   0.01635   0.01973   0.02042   0.02082
     Eigenvalues ---    0.02161   0.02168   0.02204   0.02229   0.02242
     Eigenvalues ---    0.02276   0.02454   0.02486   0.02536   0.02621
     Eigenvalues ---    0.07428   0.07494   0.07568   0.07624   0.16000
     Eigenvalues ---    0.16000   0.16000   0.16000   0.16000   0.16000
     Eigenvalues ---    0.16000   0.16000   0.16000   0.16000   0.16000
     Eigenvalues ---    0.16000   0.16000   0.22000   0.22000   0.22000
     Eigenvalues ---    0.22482   0.24471   0.24995   0.24997   0.25000
     Eigenvalues ---    0.25000   0.25000   0.25000   0.33277   0.34322
     Eigenvalues ---    0.34381   0.34424   0.34459   0.34920   0.34986
     Eigenvalues ---    0.35318   0.35459   0.35524   0.35610   0.35716
     Eigenvalues ---    0.36155   0.37730   0.37875   0.40308   0.40960
     Eigenvalues ---    0.42160   0.44642   0.45754   0.47587   0.48426
     Eigenvalues ---    0.49108   0.50519   0.57215   0.59571   0.81702
 RFO step:  Lambda=-6.07781229D-06 EMin= 8.77314517D-03
 Linear search not attempted -- first point.
 Iteration  1 RMS(Cart)=  0.00434534 RMS(Int)=  0.00000544
 Iteration  2 RMS(Cart)=  0.00001640 RMS(Int)=  0.00000201
 Iteration  3 RMS(Cart)=  0.00000000 RMS(Int)=  0.00000201
 Variable       Old X    -DE/DX   Delta X   Delta X   Delta X     New X
                                 (Linear)    (Quad)   (Total)
    R1        2.05697   0.00001   0.00000   0.00003   0.00003   2.05700
    R2        2.06790  -0.00001   0.00000  -0.00003  -0.00003   2.06787
    R3        2.74548  -0.00005   0.00000  -0.00013  -0.00013   2.74536
    R4        2.06692  -0.00002   0.00000  -0.00005  -0.00005   2.06687
    R5        2.06620   0.00001   0.00000   0.00002   0.00002   2.06623
    R6        2.74760   0.00007   0.00000   0.00019   0.00019   2.74779
    R7        2.05804  -0.00001   0.00000  -0.00003  -0.00003   2.05802
    R8        2.06562  -0.00001   0.00000  -0.00003  -0.00003   2.06559
    R9        2.51281   0.00016   0.00000   0.00026   0.00026   2.51307
   R10        2.05162  -0.00001   0.00000  -0.00003  -0.00003   2.05159
   R11        2.59346  -0.00008   0.00000  -0.00015  -0.00015   2.59330
   R12        2.71137  -0.00021   0.00000  -0.00053  -0.00053   2.71084
   R13        2.03840  -0.00002   0.00000  -0.00005  -0.00005   2.03835
   R14        2.37011  -0.00013   0.00000  -0.00016  -0.00016   2.36995
   R15        2.81868   0.00021   0.00000   0.00064   0.00064   2.81932
   R16        2.67408  -0.00013   0.00000  -0.00031  -0.00031   2.67377
   R17        2.65227   0.00004   0.00000   0.00008   0.00008   2.65235
   R18        2.53215   0.00026   0.00000   0.00045   0.00045   2.53260
   R19        2.64441  -0.00009   0.00000  -0.00020  -0.00020   2.64421
   R20        2.61212  -0.00004   0.00000  -0.00008  -0.00008   2.61204
   R21        2.04528   0.00001   0.00000   0.00002   0.00002   2.04530
   R22        1.87476  -0.00021   0.00000  -0.00043  -0.00043   1.87433
   R23        2.04832  -0.00001   0.00000  -0.00004  -0.00004   2.04828
   R24        2.61013   0.00001   0.00000   0.00002   0.00002   2.61015
   R25        2.63888   0.00000   0.00000   0.00001   0.00001   2.63889
   R26        2.04696   0.00001   0.00000   0.00003   0.00003   2.04698
   R27        2.04936  -0.00001   0.00000  -0.00002  -0.00002   2.04933
    A1        1.89879   0.00000   0.00000  -0.00007  -0.00007   1.89872
    A2        1.90414  -0.00002   0.00000  -0.00022  -0.00022   1.90392
    A3        1.89709  -0.00002   0.00000  -0.00017  -0.00017   1.89691
    A4        1.93442  -0.00001   0.00000  -0.00003  -0.00003   1.93439
    A5        1.89879   0.00001   0.00000   0.00024   0.00024   1.89903
    A6        1.92998   0.00003   0.00000   0.00025   0.00025   1.93023
    A7        1.92601   0.00002   0.00000   0.00017   0.00017   1.92618
    A8        1.89890   0.00002   0.00000   0.00022   0.00022   1.89912
    A9        1.89984  -0.00002   0.00000  -0.00019  -0.00019   1.89965
   A10        1.91473  -0.00002   0.00000  -0.00009  -0.00009   1.91465
   A11        1.92464  -0.00001   0.00000  -0.00012  -0.00012   1.92452
   A12        1.89927   0.00001   0.00000   0.00000   0.00000   1.89927
   A13        2.05429  -0.00012   0.00000  -0.00048  -0.00049   2.05381
   A14        2.10587   0.00015   0.00000   0.00057   0.00057   2.10644
   A15        2.12286  -0.00003   0.00000  -0.00015  -0.00015   2.12271
   A16        2.01552  -0.00005   0.00000  -0.00032  -0.00032   2.01520
   A17        2.20965   0.00002   0.00000   0.00009   0.00009   2.20974
   A18        2.05802   0.00003   0.00000   0.00023   0.00023   2.05824
   A19        2.07587   0.00002   0.00000   0.00009   0.00009   2.07595
   A20        2.10436   0.00001   0.00000   0.00007   0.00007   2.10442
   A21        2.10291  -0.00003   0.00000  -0.00014  -0.00014   2.10277
   A22        2.12065   0.00001   0.00000   0.00005   0.00004   2.12069
   A23        2.09825  -0.00007   0.00000  -0.00027  -0.00028   2.09797
   A24        2.06427   0.00006   0.00000   0.00026   0.00025   2.06453
   A25        2.08464   0.00004   0.00000   0.00016   0.00016   2.08479
   A26        2.14279   0.00003   0.00000   0.00011   0.00011   2.14290
   A27        2.05576  -0.00006   0.00000  -0.00027  -0.00027   2.05549
   A28        2.13434   0.00000   0.00000   0.00001   0.00001   2.13434
   A29        2.09671   0.00011   0.00000   0.00040   0.00040   2.09711
   A30        2.05214  -0.00010   0.00000  -0.00041  -0.00041   2.05173
   A31        2.12855   0.00000   0.00000   0.00002   0.00002   2.12857
   A32        2.09033   0.00001   0.00000   0.00006   0.00006   2.09039
   A33        2.06431  -0.00001   0.00000  -0.00008  -0.00008   2.06422
   A34        1.84174  -0.00015   0.00000  -0.00097  -0.00097   1.84077
   A35        2.06353   0.00003   0.00000   0.00018   0.00018   2.06372
   A36        2.10169  -0.00003   0.00000  -0.00014  -0.00014   2.10155
   A37        2.11796   0.00000   0.00000  -0.00005  -0.00005   2.11792
   A38        2.08266   0.00002   0.00000   0.00010   0.00010   2.08277
   A39        2.09787   0.00000   0.00000   0.00001   0.00001   2.09789
   A40        2.10265  -0.00002   0.00000  -0.00011  -0.00011   2.10253
   A41        2.10100  -0.00003   0.00000  -0.00013  -0.00013   2.10088
   A42        2.08711   0.00003   0.00000   0.00016   0.00016   2.08727
   A43        2.09507   0.00000   0.00000  -0.00003  -0.00003   2.09504
    D1       -0.06518   0.00001   0.00000   0.00191   0.00191  -0.06328
    D2        3.09561   0.00006   0.00000   0.00533   0.00533   3.10094
    D3        2.02521  -0.00001   0.00000   0.00167   0.00167   2.02688
    D4       -1.09718   0.00004   0.00000   0.00508   0.00508  -1.09209
    D5       -2.15075   0.00003   0.00000   0.00211   0.00211  -2.14865
    D6        1.01004   0.00008   0.00000   0.00552   0.00552   1.01557
    D7       -1.06508   0.00004   0.00000   0.00195   0.00195  -1.06313
    D8        2.05711  -0.00001   0.00000  -0.00149  -0.00149   2.05562
    D9        3.12607   0.00001   0.00000   0.00162   0.00162   3.12769
   D10       -0.03493  -0.00003   0.00000  -0.00182  -0.00182  -0.03674
   D11        1.03445   0.00002   0.00000   0.00175   0.00175   1.03620
   D12       -2.12655  -0.00002   0.00000  -0.00169  -0.00169  -2.12824
   D13       -3.13985  -0.00002   0.00000  -0.00151  -0.00151  -3.14135
   D14        0.00209  -0.00002   0.00000  -0.00167  -0.00167   0.00043
   D15        0.02172   0.00003   0.00000   0.00205   0.00205   0.02377
   D16       -3.11953   0.00003   0.00000   0.00189   0.00189  -3.11764
   D17       -3.14013   0.00002   0.00000   0.00086   0.00086  -3.13927
   D18        0.01154  -0.00001   0.00000  -0.00041  -0.00041   0.01112
   D19        0.00182   0.00001   0.00000   0.00069   0.00069   0.00251
   D20       -3.12970  -0.00001   0.00000  -0.00058  -0.00058  -3.13028
   D21        0.00117   0.00005   0.00000   0.00457   0.00457   0.00574
   D22       -3.13462  -0.00007   0.00000  -0.00500  -0.00500  -3.13961
   D23        3.13270   0.00008   0.00000   0.00584   0.00584   3.13854
   D24       -0.00309  -0.00004   0.00000  -0.00373  -0.00373  -0.00682
   D25        3.11715   0.00009   0.00000   0.00795   0.00795   3.12510
   D26       -0.02572   0.00009   0.00000   0.00851   0.00851  -0.01721
   D27       -0.01882  -0.00003   0.00000  -0.00131  -0.00131  -0.02013
   D28        3.12149  -0.00002   0.00000  -0.00075  -0.00075   3.12074
   D29        0.00142   0.00005   0.00000   0.00243   0.00243   0.00385
   D30       -3.13946   0.00002   0.00000   0.00125   0.00125  -3.13821
   D31       -3.13896   0.00004   0.00000   0.00190   0.00190  -3.13706
   D32        0.00335   0.00001   0.00000   0.00072   0.00072   0.00407
   D33        3.14115  -0.00003   0.00000  -0.00134  -0.00134   3.13981
   D34       -0.00246  -0.00001   0.00000  -0.00057  -0.00057  -0.00303
   D35       -0.00170  -0.00002   0.00000  -0.00080  -0.00080  -0.00250
   D36        3.13787   0.00000   0.00000  -0.00002  -0.00002   3.13785
   D37        0.00763   0.00005   0.00000   0.00180   0.00180   0.00943
   D38       -3.13466   0.00007   0.00000   0.00295   0.00295  -3.13171
   D39        3.14042   0.00000   0.00000   0.00016   0.00016   3.14058
   D40       -0.00271  -0.00001   0.00000  -0.00028  -0.00028  -0.00299
   D41       -0.00049  -0.00002   0.00000  -0.00097  -0.00097  -0.00146
   D42        3.13957  -0.00003   0.00000  -0.00141  -0.00141   3.13816
   D43       -0.00064   0.00001   0.00000   0.00042   0.00042  -0.00022
   D44        3.14016   0.00001   0.00000   0.00052   0.00052   3.14068
   D45       -3.14025  -0.00001   0.00000  -0.00034  -0.00034  -3.14059
   D46        0.00056   0.00000   0.00000  -0.00024  -0.00024   0.00031
   D47        0.00030   0.00000   0.00000  -0.00011  -0.00011   0.00018
   D48       -3.14078   0.00000   0.00000   0.00013   0.00013  -3.14065
   D49        3.14031  -0.00001   0.00000  -0.00057  -0.00057   3.13974
   D50       -0.00076  -0.00001   0.00000  -0.00033  -0.00033  -0.00109
   D51        0.00138   0.00000   0.00000   0.00005   0.00005   0.00143
   D52       -3.14074   0.00000   0.00000  -0.00019  -0.00019  -3.14093
   D53       -3.13942   0.00000   0.00000  -0.00005  -0.00005  -3.13947
   D54        0.00165  -0.00001   0.00000  -0.00029  -0.00029   0.00136
         Item               Value     Threshold  Converged?
 Maximum Force            0.000258     0.000450     YES
 RMS     Force            0.000061     0.000300     YES
 Maximum Displacement     0.018121     0.001800     NO 
 RMS     Displacement     0.004346     0.001200     NO 
 Predicted change in Energy=-3.038949D-06
 GradGradGradGradGradGradGradGradGradGradGradGradGradGradGradGradGradGrad

                          Input orientation:                          
 ---------------------------------------------------------------------
 Center     Atomic      Atomic             Coordinates (Angstroms)
 Number     Number       Type             X           Y           Z
 ---------------------------------------------------------------------
      1          6           0        3.703268    1.636191   -0.003893
      2          1           0        4.753193    1.920645    0.036235
      3          1           0        3.259909    2.052286   -0.913685
      4          6           0        4.840903   -0.575725   -0.022047
      5          1           0        5.405605   -0.354120   -0.931734
      6          7           0        3.603129    0.186885    0.003488
      7          1           0        3.191557    2.061604    0.864119
      8          1           0        4.616273   -1.641111    0.001074
      9          1           0        5.457210   -0.326387    0.845585
     10          6           0        2.415462   -0.411421    0.006793
     11          1           0        2.439624   -1.496793    0.012532
     12          6           0        1.188974    0.204181    0.003476
     13          6           0        0.005381   -0.606307    0.010850
     14          1           0        1.115185    1.280183   -0.012722
     15          8           0        0.068758   -1.858730    0.026352
     16          6           0       -1.342413    0.033415    0.004929
     17          6           0       -2.499113   -0.781336   -0.007974
     18          6           0       -1.522950    1.425296    0.012475
     19          8           0       -2.431991   -2.119846   -0.010808
     20          6           0       -3.770454   -0.196948   -0.017763
     21          6           0       -2.780001    2.000043    0.004717
     22          1           0       -0.660450    2.079010    0.025903
     23          1           0       -1.464184   -2.336219    0.006677
     24          1           0       -4.635219   -0.850333   -0.028510
     25          6           0       -3.908277    1.177376   -0.011372
     26          1           0       -2.886320    3.078007    0.011727
     27          1           0       -4.899976    1.616168   -0.018214
 ---------------------------------------------------------------------
                    Distance matrix (angstroms):
                    1          2          3          4          5
     1  C    0.000000
     2  H    1.088516   0.000000
     3  H    1.094269   1.774704   0.000000
     4  C    2.487391   2.498590   3.193900   0.000000
     5  H    2.778521   2.556787   3.224147   1.093401   0.000000
     6  N    1.452780   2.080779   2.106828   1.454067   2.101487
     7  H    1.093741   1.773124   1.779142   3.234368   3.736685
     8  H    3.402104   3.564561   4.039516   1.089056   1.774689
     9  H    2.765798   2.489948   3.685274   1.093064   1.778283
    10  C    2.418940   3.302178   2.762285   2.431171   3.134497
    11  H    3.378262   4.126990   3.758551   2.572101   3.315778
    12  C    2.893506   3.956131   2.923260   3.734366   4.355031
    13  C    4.324741   5.378462   4.302887   4.835731   5.487666
    14  H    2.612469   3.694278   2.451065   4.162386   4.682225
    15  O    5.042326   6.018945   5.134507   4.941843   5.627052
    16  C    5.294134   6.381146   5.108919   6.213306   6.823728
    17  C    6.656874   7.739418   6.481979   7.342908   7.969969
    18  C    5.230497   6.295705   4.911887   6.671125   7.215451
    19  O    7.193696   8.243461   7.114745   7.435013   8.086643
    20  C    7.695265   8.782919   7.435572   8.619684   9.222803
    21  C    6.493476   7.533678   6.109558   8.044468   8.568732
    22  H    4.386229   5.415968   4.031470   6.108584   6.605619
    23  H    6.517876   7.535087   6.513301   6.546318   7.211333
    24  H    8.701366   9.789014   8.458238   9.480102  10.093572
    25  C    7.625364   8.693433   7.277536   8.923095   9.483720
    26  H    6.745498   7.726722   6.299573   8.547565   9.023615
    27  H    8.603279   9.658123   8.220450   9.984445  10.531930
                    6          7          8          9         10
     6  N    0.000000
     7  H    2.103485   0.000000
     8  H    2.089985   4.060143   0.000000
     9  H    2.100046   3.291812   1.774507   0.000000
    10  C    1.329862   2.730052   2.521059   3.156427   0.000000
    11  H    2.046606   3.735343   2.181458   3.342104   1.085656
    12  C    2.414217   2.863750   3.892491   4.382749   1.372315
    13  C    3.684155   4.242351   4.725594   5.522462   2.417952
    14  H    2.717614   2.385538   4.559799   4.708603   2.133688
    15  O    4.083729   5.081609   4.552789   5.661682   2.757192
    16  C    4.947922   5.040698   6.189506   6.860833   3.784112
    17  C    6.178587   6.420792   7.167147   8.014900   4.928499
    18  C    5.273559   4.832884   6.862437   7.244661   4.345648
    19  O    6.460951   7.062175   7.064513   8.135687   5.139730
    20  C    7.383597   7.372135   8.510179   9.268868   6.189682
    21  C    6.635652   6.033396   8.243960   8.600638   5.727826
    22  H    4.664626   3.942190   6.456293   6.624468   3.957758
    23  H    5.660717   6.461577   6.120062   7.255955   4.330878
    24  H    8.303446   8.398487   9.285274  10.143752   7.064418
    25  C    7.576445   7.208050   8.978417   9.524077   6.520298
    26  H    7.104337   6.220951   8.863357   9.049846   6.347049
    27  H    8.622419   8.151677  10.058292  10.573126   7.591270
                   11         12         13         14         15
    11  H    0.000000
    12  C    2.111283   0.000000
    13  C    2.592008   1.434517   0.000000
    14  H    3.076746   1.078650   2.188850   0.000000
    15  O    2.398373   2.347554   1.254121   3.308974   0.000000
    16  C    4.079876   2.537140   1.491920   2.755817   2.360524
    17  C    4.990332   3.817507   2.510672   4.160893   2.784944
    18  C    4.923474   2.974178   2.542285   2.642243   3.649460
    19  O    4.911351   4.302638   2.869155   4.913517   2.514619
    20  C    6.344728   4.975669   3.798068   5.104058   4.183661
    21  C    6.282706   4.356361   3.814636   3.961183   4.796459
    22  H    4.732547   2.633601   2.766675   1.947433   4.004690
    23  H    3.993042   3.673267   2.269853   4.442058   1.605706
    24  H    7.104435   5.918974   4.647178   6.132413   4.811162
    25  C    6.888222   5.189345   4.301016   5.024514   5.003616
    26  H    7.021002   4.986679   4.683600   4.386891   5.753614
    27  H    7.972528   6.250559   5.385422   6.024540   6.063433
                   16         17         18         19         20
    16  C    0.000000
    17  C    1.414899   0.000000
    18  C    1.403561   2.412993   0.000000
    19  O    2.413288   1.340195   3.659908   0.000000
    20  C    2.439050   1.399255   2.771978   2.342876   0.000000
    21  C    2.436039   2.795555   1.382233   4.134590   2.410035
    22  H    2.156380   3.400502   1.082326   4.557423   3.854091
    23  H    2.372761   1.867874   3.761979   0.991854   3.145785
    24  H    3.409502   2.137319   3.855695   2.542871   1.083904
    25  C    2.809373   2.412947   2.398295   3.612630   1.381232
    26  H    3.413684   3.878769   2.142483   5.217720   3.392329
    27  H    3.893829   3.392975   3.382555   4.477589   2.136167
                   21         22         23         24         25
    21  C    0.000000
    22  H    2.121127   0.000000
    23  H    4.531506   4.487829   0.000000
    24  H    3.401115   4.937895   3.502080   0.000000
    25  C    1.396441   3.370863   4.280102   2.154146   0.000000
    26  H    1.083218   2.439814   5.597888   4.300247   2.158084
    27  H    2.154572   4.264945   5.237046   2.480692   1.084459
                   26         27
    26  H    0.000000
    27  H    2.488510   0.000000
 Stoichiometry    C11H13NO2
 Framework group  C1[X(C11H13NO2)]
 Deg. of freedom    75
 Full point group                 C1      NOp   1
 Largest Abelian subgroup         C1      NOp   1
 Largest concise Abelian subgroup C1      NOp   1
                         Standard orientation:                         
 ---------------------------------------------------------------------
 Center     Atomic      Atomic             Coordinates (Angstroms)
 Number     Number       Type             X           Y           Z
 ---------------------------------------------------------------------
      1          6           0        3.703430    1.636063   -0.003196
      2          1           0        4.753371    1.920456    0.036932
      3          1           0        3.260096    2.052184   -0.912988
      4          6           0        4.840937   -0.575919   -0.021350
      5          1           0        5.405652   -0.354347   -0.931037
      6          7           0        3.603207    0.186763    0.004185
      7          1           0        3.191744    2.061506    0.864816
      8          1           0        4.616245   -1.641292    0.001771
      9          1           0        5.457259   -0.326616    0.846282
     10          6           0        2.415506   -0.411474    0.007490
     11          1           0        2.439604   -1.496847    0.013230
     12          6           0        1.189053    0.204199    0.004173
     13          6           0        0.005413   -0.606221    0.011547
     14          1           0        1.115327    1.280205   -0.012025
     15          8           0        0.068717   -1.858647    0.027049
     16          6           0       -1.342343    0.033580    0.005626
     17          6           0       -2.499090   -0.781104   -0.007277
     18          6           0       -1.522800    1.425472    0.013173
     19          8           0       -2.432047   -2.119618   -0.010111
     20          6           0       -3.770398   -0.196642   -0.017065
     21          6           0       -2.779817    2.000291    0.005414
     22          1           0       -0.660262    2.079136    0.026600
     23          1           0       -1.464252   -2.336047    0.007374
     24          1           0       -4.635201   -0.849977   -0.027813
     25          6           0       -3.908141    1.177690   -0.010675
     26          1           0       -2.886074    3.078262    0.012424
     27          1           0       -4.899815    1.616539   -0.017517
 ---------------------------------------------------------------------
 Rotational constants (GHZ):      1.6181224      0.3216899      0.2692638
 Standard basis: 6-311++G(d,p) (5D, 7F)
 There are   413 symmetry adapted cartesian basis functions of A   symmetry.
 There are   399 symmetry adapted basis functions of A   symmetry.
   399 basis functions,   621 primitive gaussians,   413 cartesian basis functions
    51 alpha electrons       51 beta electrons
       nuclear repulsion energy       837.8338971471 Hartrees.
 NAtoms=   27 NActive=   27 NUniq=   27 SFac= 1.00D+00 NAtFMM=   60 NAOKFM=F Big=F
 Integral buffers will be    131072 words long.
 Raffenetti 2 integral format.
 Two-electron integral symmetry is turned on.
 Nuclear repulsion after empirical dispersion term =      837.8189570878 Hartrees.
 ------------------------------------------------------------------------------
 Polarizable Continuum Model (PCM)
 =================================
 Model                : PCM (using non-symmetric T matrix).
 Atomic radii         : UFF (Universal Force Field).
 Polarization charges : Total charges.
 Charge compensation  : None.
 Solution method      : On-the-fly selection.
 Cavity type          : Scaled VdW (van der Waals Surface) (Alpha=1.100).
 Cavity algorithm     : GePol (No added spheres)
                        Default sphere list used, NSphG=   27.
                        Lebedev-Laikov grids with approx.  5.0 points / Ang**2.
                        Smoothing algorithm: Karplus/York (Gamma=1.0000).
                        Polarization charges: spherical gaussians, with
                                              point-specific exponents (IZeta= 3).
                        Self-potential: point-specific (ISelfS= 7).
                        Self-field    : sphere-specific E.n sum rule (ISelfD= 2).
 1st derivatives      : Analytical E(r).r(x)/FMM algorithm (CHGder, D1EAlg=3).
                        Cavity 1st derivative terms included.
 Solvent              : Dichloromethane, Eps=   8.930000 Eps(inf)=   2.028346
 ------------------------------------------------------------------------------
 One-electron integrals computed using PRISM.
 NBasis=   399 RedAO= T EigKep=  1.61D-06  NBF=   399
 NBsUse=   396 1.00D-06 EigRej=  7.54D-07 NBFU=   396
 Initial guess from the checkpoint file:  "1_opt_DCM.chk"
 B after Tr=     0.000000    0.000000    0.000000
         Rot=    1.000000   -0.000004   -0.000015    0.000026 Ang=   0.00 deg.
 Requested convergence on RMS density matrix=1.00D-08 within 128 cycles.
 Requested convergence on MAX density matrix=1.00D-06.
 Requested convergence on             energy=1.00D-06.
 No special actions if energy rises.
 Inv3:  Mode=1 IEnd=    13029168.
 Iteration    1 A*A^-1 deviation from unit magnitude is 5.44D-15 for    499.
 Iteration    1 A*A^-1 deviation from orthogonality  is 3.46D-15 for   1905   1169.
 Iteration    1 A^-1*A deviation from unit magnitude is 3.77D-15 for   1037.
 Iteration    1 A^-1*A deviation from orthogonality  is 5.64D-10 for    624    614.
 Iteration    2 A*A^-1 deviation from unit magnitude is 7.66D-15 for    499.
 Iteration    2 A*A^-1 deviation from orthogonality  is 4.70D-15 for   2074    501.
 Iteration    2 A^-1*A deviation from unit magnitude is 9.99D-16 for    316.
[...]
 Alpha virt. eigenvalues --    0.11284   0.11811   0.12954   0.13410   0.13764
 Alpha virt. eigenvalues --    0.14275   0.14724   0.15286   0.15848   0.16149
 Alpha virt. eigenvalues --    0.16385   0.16586   0.16669   0.16995   0.17252
 Alpha virt. eigenvalues --    0.17973   0.18344   0.18972   0.19041   0.19182
 Alpha virt. eigenvalues --    0.19912   0.20006   0.20637   0.20996   0.21578
 Alpha virt. eigenvalues --    0.21739   0.22003   0.22052   0.22768   0.23008
 Alpha virt. eigenvalues --    0.24104   0.24632   0.24947   0.25252   0.25559
 Alpha virt. eigenvalues --    0.26219   0.26680   0.27008   0.27402   0.27557
 Alpha virt. eigenvalues --    0.28286   0.28393   0.29270   0.29681   0.29832
 Alpha virt. eigenvalues --    0.30387   0.31153   0.32040   0.32833   0.33109
 Alpha virt. eigenvalues --    0.33615   0.34248   0.34663   0.35286   0.35452
 Alpha virt. eigenvalues --    0.35870   0.36124   0.37405   0.37900   0.37970
 Alpha virt. eigenvalues --    0.38363   0.38849   0.39070   0.39620   0.39763
 Alpha virt. eigenvalues --    0.40762   0.41849   0.42547   0.43088   0.43751
 Alpha virt. eigenvalues --    0.44291   0.45258   0.46251   0.46576   0.48521
 Alpha virt. eigenvalues --    0.49811   0.50785   0.52071   0.52600   0.53305
 Alpha virt. eigenvalues --    0.55333   0.57896   0.58321   0.60215   0.60894
 Alpha virt. eigenvalues --    0.61091   0.62231   0.62555   0.63060   0.64403
 Alpha virt. eigenvalues --    0.64800   0.65369   0.66028   0.66875   0.68437
 Alpha virt. eigenvalues --    0.68559   0.69693   0.69739   0.70387   0.71398
 Alpha virt. eigenvalues --    0.71547   0.72192   0.72821   0.73596   0.74246
 Alpha virt. eigenvalues --    0.74739   0.75322   0.76988   0.77561   0.79111
 Alpha virt. eigenvalues --    0.79798   0.80585   0.80962   0.82875   0.84184
 Alpha virt. eigenvalues --    0.85204   0.86837   0.87595   0.88630   0.89227
 Alpha virt. eigenvalues --    0.91139   0.94075   0.94571   0.94735   0.95215
 Alpha virt. eigenvalues --    0.96685   0.97412   0.98903   0.99587   1.00101
 Alpha virt. eigenvalues --    1.01833   1.03703   1.04203   1.05545   1.06366
 Alpha virt. eigenvalues --    1.07571   1.07830   1.08909   1.11552   1.11654
 Alpha virt. eigenvalues --    1.13436   1.14698   1.15045   1.16203   1.17127
 Alpha virt. eigenvalues --    1.17763   1.18613   1.18678   1.21022   1.21447
 Alpha virt. eigenvalues --    1.22108   1.28029   1.31249   1.31927   1.32740
 Alpha virt. eigenvalues --    1.33765   1.36421   1.38988   1.39804   1.44218
 Alpha virt. eigenvalues --    1.44947   1.46693   1.51691   1.51875   1.52735
 Alpha virt. eigenvalues --    1.52917   1.55463   1.57541   1.58849   1.59417
 Alpha virt. eigenvalues --    1.60366   1.61521   1.63798   1.64030   1.64857
 Alpha virt. eigenvalues --    1.65260   1.65535   1.67357   1.67896   1.69631
 Alpha virt. eigenvalues --    1.71280   1.72814   1.74302   1.74806   1.75932
 Alpha virt. eigenvalues --    1.77647   1.78243   1.81281   1.81870   1.82231
 Alpha virt. eigenvalues --    1.82547   1.83824   1.84246   1.86454   1.87571
 Alpha virt. eigenvalues --    1.90376   1.91466   1.93220   1.96590   1.98870
 Alpha virt. eigenvalues --    1.99386   1.99911   2.01518   2.01856   2.03123
 Alpha virt. eigenvalues --    2.04849   2.04899   2.06226   2.07479   2.08000
 Alpha virt. eigenvalues --    2.09767   2.11636   2.12503   2.14223   2.15142
 Alpha virt. eigenvalues --    2.17967   2.19589   2.22694   2.25769   2.25977
 Alpha virt. eigenvalues --    2.26737   2.30327   2.33323   2.35327   2.37603
 Alpha virt. eigenvalues --    2.40563   2.42170   2.46149   2.47832   2.48380
 Alpha virt. eigenvalues --    2.51410   2.54714   2.55951   2.56353   2.57295
 Alpha virt. eigenvalues --    2.59219   2.60067   2.62087   2.63777   2.64436
 Alpha virt. eigenvalues --    2.67405   2.70230   2.71323   2.72849   2.73578
 Alpha virt. eigenvalues --    2.76503   2.77676   2.80298   2.81394   2.81731
 Alpha virt. eigenvalues --    2.82611   2.83602   2.84280   2.85537   2.86182
 Alpha virt. eigenvalues --    2.86498   2.89011   2.90350   2.90717   2.92250
 Alpha virt. eigenvalues --    2.94271   2.95121   2.96663   2.97793   2.99068
 Alpha virt. eigenvalues --    3.03388   3.03788   3.08186   3.13940   3.16684
 Alpha virt. eigenvalues --    3.17995   3.18521   3.21407   3.21627   3.26067
 Alpha virt. eigenvalues --    3.28660   3.29428   3.29532   3.31679   3.37957
 Alpha virt. eigenvalues --    3.41438   3.46626   3.50523   3.56554   3.60469
 Alpha virt. eigenvalues --    3.62779   3.64495   3.69120   3.69468   3.72557
 Alpha virt. eigenvalues --    3.75321   3.80787   3.81953   3.83463   3.86834
 Alpha virt. eigenvalues --    3.89404   3.94998   3.95728   4.02404   4.09469
 Alpha virt. eigenvalues --    4.12546   4.14475   4.18287   4.29051   4.29612
 Alpha virt. eigenvalues --    4.40102   4.64304   4.94343   4.98571   5.12912
 Alpha virt. eigenvalues --    5.18025   5.18896   5.41793   5.61985   5.88259
 Alpha virt. eigenvalues --    5.93831  23.72831  23.94884  24.04536  24.06181
 Alpha virt. eigenvalues --   24.06557  24.08316  24.09695  24.16731  24.24279
 Alpha virt. eigenvalues --   24.27659  24.33225  35.71445  50.12703  50.19264
          Condensed to atoms (all electrons):
               1          2          3          4          5          6
     1  C    5.243761   0.388562   0.415549  -0.057064   0.002954   0.235915
     2  H    0.388562   0.453591  -0.016652   0.003219  -0.005702  -0.045993
     3  H    0.415549  -0.016652   0.519351  -0.001453  -0.001074  -0.040781
     4  C   -0.057064   0.003219  -0.001453   5.168586   0.403489   0.242513
     5  H    0.002954  -0.005702  -0.001074   0.403489   0.534094  -0.043172
     6  N    0.235915  -0.045993  -0.040781   0.242513  -0.043172   6.798469
     7  H    0.415042  -0.018599  -0.053299   0.003023   0.002402  -0.036205
     8  H   -0.001992   0.003645  -0.001469   0.412575  -0.027594  -0.098135
     9  H   -0.002656  -0.005403   0.002682   0.405320  -0.057929  -0.042183
    10  C    0.170495   0.028288   0.000693  -0.070286  -0.023338   0.202603
    11  H    0.005816  -0.001165  -0.000176  -0.039021   0.003620  -0.058714
    12  C    0.135943   0.021819  -0.017486  -0.036605   0.009152  -0.204925
    13  C   -0.265110  -0.020153   0.002019  -0.094772   0.001057   0.007816
    14  H    0.020740   0.003040  -0.003162  -0.007568   0.001052  -0.031295
    15  O   -0.001745   0.000035   0.000393  -0.001231  -0.000028   0.002699
    16  C   -0.194898  -0.005266  -0.002243   0.004769  -0.000386  -0.021427
    17  C   -0.019327   0.000735  -0.001431  -0.002917  -0.000327   0.002355
    18  C   -0.029085  -0.006032   0.001529  -0.012120   0.000364   0.000802
    19  O   -0.000176  -0.000010   0.000049   0.000320   0.000004  -0.000155
    20  C    0.004122   0.000206  -0.000874  -0.000526   0.000003   0.000585
    21  C   -0.001954  -0.000222   0.001713   0.000365   0.000003  -0.000136
    22  H   -0.001489  -0.000205  -0.001712  -0.001576  -0.000105  -0.004859
    23  H   -0.001131  -0.000101   0.000034   0.000035   0.000015   0.000061
    24  H    0.000042   0.000002  -0.000015   0.000011   0.000000  -0.000003
    25  C   -0.004894  -0.000210   0.000458  -0.000457  -0.000003   0.000081
    26  H   -0.000222  -0.000016   0.000013   0.000068   0.000002   0.000102
    27  H   -0.000113  -0.000006   0.000016  -0.000001   0.000000  -0.000012
               7          8          9         10         11         12
     1  C    0.415042  -0.001992  -0.002656   0.170495   0.005816   0.135943
     2  H   -0.018599   0.003645  -0.005403   0.028288  -0.001165   0.021819
     3  H   -0.053299  -0.001469   0.002682   0.000693  -0.000176  -0.017486
     4  C    0.003023   0.412575   0.405320  -0.070286  -0.039021  -0.036605
     5  H    0.002402  -0.027594  -0.057929  -0.023338   0.003620   0.009152
     6  N   -0.036205  -0.098135  -0.042183   0.202603  -0.058714  -0.204925
     7  H    0.522735  -0.002117  -0.001226   0.011759   0.000876  -0.026187
     8  H   -0.002117   0.531434  -0.026329   0.064404  -0.010938   0.001932
     9  H   -0.001226  -0.026329   0.534010  -0.018819   0.002712   0.009897
    10  C    0.011759   0.064404  -0.018819  11.738307   0.316411   2.963097
    11  H    0.000876  -0.010938   0.002712   0.316411   0.459144   0.061067
    12  C   -0.026187   0.001932   0.009897   2.963097   0.061067  11.765980
    13  C   -0.010214   0.000506   0.001306  -3.890136   0.101198   1.345301
    14  H    0.003119  -0.003313   0.000665   0.089144   0.000250   0.633701
    15  O    0.000465   0.000433   0.000016   0.002325   0.008141  -0.233377
    16  C   -0.003549   0.005672   0.000095  -2.845243  -0.072982  -4.508198
    17  C   -0.001524   0.003310  -0.000299  -1.303426  -0.063944  -3.011578
    18  C   -0.000691  -0.003421   0.000376  -1.592140   0.044765  -1.402906
    19  O    0.000043  -0.000096   0.000004   0.006875   0.000226  -0.045286
    20  C   -0.000876   0.000066  -0.000001  -0.200636  -0.002478  -0.069545
    21  C    0.002015  -0.000199   0.000002   0.108979   0.002819  -0.252629
    22  H   -0.003155   0.000538  -0.000078  -0.144515   0.002000  -0.111353
    23  H    0.000008   0.000028   0.000023  -0.013713   0.000748   0.006817
    24  H   -0.000014   0.000005   0.000000   0.000648  -0.000220   0.004309
    25  C    0.000398  -0.000019  -0.000001  -0.180856  -0.000360  -0.568552
    26  H    0.000061  -0.000003   0.000003   0.005285  -0.000204   0.004612
    27  H    0.000012   0.000000   0.000000  -0.002163   0.000028  -0.011495
              13         14         15         16         17         18
     1  C   -0.265110   0.020740  -0.001745  -0.194898  -0.019327  -0.029085
     2  H   -0.020153   0.003040   0.000035  -0.005266   0.000735  -0.006032
     3  H    0.002019  -0.003162   0.000393  -0.002243  -0.001431   0.001529
     4  C   -0.094772  -0.007568  -0.001231   0.004769  -0.002917  -0.012120
     5  H    0.001057   0.001052  -0.000028  -0.000386  -0.000327   0.000364
     6  N    0.007816  -0.031295   0.002699  -0.021427   0.002355   0.000802
     7  H   -0.010214   0.003119   0.000465  -0.003549  -0.001524  -0.000691
     8  H    0.000506  -0.003313   0.000433   0.005672   0.003310  -0.003421
     9  H    0.001306   0.000665   0.000016   0.000095  -0.000299   0.000376
    10  C   -3.890136   0.089144   0.002325  -2.845243  -1.303426  -1.592140
    11  H    0.101198   0.000250   0.008141  -0.072982  -0.063944   0.044765
    12  C    1.345301   0.633701  -0.233377  -4.508198  -3.011578  -1.402906
    13  C   13.096788  -0.064708   0.903732   0.958761  -4.168691   0.581751
    14  H   -0.064708   0.576843  -0.014466  -0.205270  -0.031089  -0.057232
    15  O    0.903732  -0.014466   8.245335  -0.150836  -0.111223  -0.224451
    16  C    0.958761  -0.205270  -0.150836  16.513310   1.471295  -2.713682
    17  C   -4.168691  -0.031089  -0.111223   1.471295  15.758954  -3.610010
    18  C    0.581751  -0.057232  -0.224451  -2.713682  -3.610010  13.501446
    19  O   -0.062038  -0.001014  -0.006368   0.092032   0.349208  -0.026853
    20  C   -0.760881   0.016175  -0.061511  -2.286568   0.197977   1.223569
    21  C   -0.275348  -0.079813   0.004746  -1.498131   0.202931   0.951069
    22  H    0.007149  -0.012984  -0.000270  -0.063530   0.032060   0.666529
    23  H    0.035615  -0.001031   0.074402  -0.138139  -0.002005   0.035623
    24  H    0.000787   0.000878   0.001232  -0.082908  -0.092243   0.004019
    25  C   -0.809411  -0.018889  -0.031054  -0.291383  -0.114584   0.485937
    26  H   -0.001626   0.002977   0.000688   0.032374   0.030573  -0.068197
    27  H   -0.006548  -0.001351  -0.000411   0.071042   0.032927  -0.044772
              19         20         21         22         23         24
     1  C   -0.000176   0.004122  -0.001954  -0.001489  -0.001131   0.000042
     2  H   -0.000010   0.000206  -0.000222  -0.000205  -0.000101   0.000002
     3  H    0.000049  -0.000874   0.001713  -0.001712   0.000034  -0.000015
     4  C    0.000320  -0.000526   0.000365  -0.001576   0.000035   0.000011
     5  H    0.000004   0.000003   0.000003  -0.000105   0.000015   0.000000
     6  N   -0.000155   0.000585  -0.000136  -0.004859   0.000061  -0.000003
     7  H    0.000043  -0.000876   0.002015  -0.003155   0.000008  -0.000014
     8  H   -0.000096   0.000066  -0.000199   0.000538   0.000028   0.000005
     9  H    0.000004  -0.000001   0.000002  -0.000078   0.000023   0.000000
    10  C    0.006875  -0.200636   0.108979  -0.144515  -0.013713   0.000648
    11  H    0.000226  -0.002478   0.002819   0.002000   0.000748  -0.000220
    12  C   -0.045286  -0.069545  -0.252629  -0.111353   0.006817   0.004309
    13  C   -0.062038  -0.760881  -0.275348   0.007149   0.035615   0.000787
    14  H   -0.001014   0.016175  -0.079813  -0.012984  -0.001031   0.000878
    15  O   -0.006368  -0.061511   0.004746  -0.000270   0.074402   0.001232
    16  C    0.092032  -2.286568  -1.498131  -0.063530  -0.138139  -0.082908
    17  C    0.349208   0.197977   0.202931   0.032060  -0.002005  -0.092243
    18  C   -0.026853   1.223569   0.951069   0.666529   0.035623   0.004019
    19  O    8.184027  -0.383008   0.007219  -0.002902   0.249325  -0.023304
    20  C   -0.383008   8.010485  -0.229490   0.041269   0.068791   0.535225
    21  C    0.007219  -0.229490   6.957342  -0.041339   0.009668  -0.001858
    22  H   -0.002902   0.041269  -0.041339   0.519879   0.001869  -0.000787
    23  H    0.249325   0.068791   0.009668   0.001869   0.297602   0.002058
    24  H   -0.023304   0.535225  -0.001858  -0.000787   0.002058   0.446214
    25  C    0.013568   0.501504   0.412570   0.036460  -0.004425  -0.031587
    26  H    0.000279   0.013858   0.369492  -0.015744   0.000307   0.001529
    27  H    0.000665  -0.086204  -0.035590   0.002228  -0.000387  -0.009604
              25         26         27
     1  C   -0.004894  -0.000222  -0.000113
     2  H   -0.000210  -0.000016  -0.000006
     3  H    0.000458   0.000013   0.000016
     4  C   -0.000457   0.000068  -0.000001
     5  H   -0.000003   0.000002   0.000000
     6  N    0.000081   0.000102  -0.000012
     7  H    0.000398   0.000061   0.000012
     8  H   -0.000019  -0.000003   0.000000
     9  H   -0.000001   0.000003   0.000000
    10  C   -0.180856   0.005285  -0.002163
    11  H   -0.000360  -0.000204   0.000028
    12  C   -0.568552   0.004612  -0.011495
    13  C   -0.809411  -0.001626  -0.006548
    14  H   -0.018889   0.002977  -0.001351
    15  O   -0.031054   0.000688  -0.000411
    16  C   -0.291383   0.032374   0.071042
    17  C   -0.114584   0.030573   0.032927
    18  C    0.485937  -0.068197  -0.044772
    19  O    0.013568   0.000279   0.000665
    20  C    0.501504   0.013858  -0.086204
    21  C    0.412570   0.369492  -0.035590
    22  H    0.036460  -0.015744   0.002228
    23  H   -0.004425   0.000307  -0.000387
    24  H   -0.031587   0.001529  -0.009604
    25  C    6.674087  -0.065615   0.423374
    26  H   -0.065615   0.445943  -0.007931
    27  H    0.423374  -0.007931   0.444739
 Mulliken charges:
               1
     1  C   -0.457087
     2  H    0.222593
     3  H    0.197329
     4  C   -0.318697
     5  H    0.201447
     6  N    0.133994
     7  H    0.195698
     8  H    0.151076
     9  H    0.197813
    10  C    0.575960
    11  H    0.240381
    12  C   -0.463506
    13  C   -0.614148
    14  H    0.184602
    15  O   -0.407674
    16  C    1.935290
    17  C    0.452290
    18  C   -1.706186
    19  O   -0.352636
    20  C   -0.531235
    21  C   -0.614223
    22  H    0.096624
    23  H    0.377903
    24  H    0.245583
    25  C   -0.426138
    26  H    0.251393
    27  H    0.231556
 Sum of Mulliken charges =   0.00000
 Mulliken charges with hydrogens summed into heavy atoms:
               1
     1  C    0.158532
     4  C    0.231640
     6  N    0.133994
    10  C    0.816340
    12  C   -0.278904
    13  C   -0.614148
    15  O   -0.407674
    16  C    1.935290
    17  C    0.452290
    18  C   -1.609563
    19  O    0.025267
    20  C   -0.285652
    21  C   -0.362829
    25  C   -0.194583
 Electronic spatial extent (au):  <R**2>=           3936.3736
 Charge=              0.0000 electrons
 Dipole moment (field-independent basis, Debye):
    X=              7.9078    Y=              5.1227    Z=             -0.0432  Tot=              9.4222
 Quadrupole moment (field-independent basis, Debye-Ang):
   XX=            -50.7058   YY=            -83.9767   ZZ=            -87.7112
   XY=             -4.8372   XZ=             -0.1081   YZ=              0.0521
 Traceless Quadrupole moment (field-independent basis, Debye-Ang):
   XX=             23.4255   YY=             -9.8455   ZZ=            -13.5800
   XY=             -4.8372   XZ=             -0.1081   YZ=              0.0521
 Octapole moment (field-independent basis, Debye-Ang**2):
  XXX=            134.5871  YYY=             22.6770  ZZZ=             -0.1494  XYY=             25.9060
  XXY=             24.3209  XXZ=             -0.5942  XZZ=             14.6036  YZZ=             -6.5646
  YYZ=              0.0699  XYZ=              0.1498
 Hexadecapole moment (field-independent basis, Debye-Ang**3):
 XXXX=          -3377.8642 YYYY=           -880.0433 ZZZZ=           -109.9314 XXXY=            -51.7184
 XXXZ=              0.6613 YYYX=            -30.0932 YYYZ=              0.1626 ZZZX=             -0.9682
 ZZZY=             -0.0821 XXYY=           -813.4790 XXZZ=           -767.7720 YYZZ=           -176.1154
 XXYZ=              0.3467 YYXZ=              0.0754 ZZXY=             18.3349
 N-N= 8.378068005587D+02 E-N=-3.149911026811D+03  KE= 6.296261002975D+02
 1\1\GINC-DN58\FOpt\RwB97XD\6-311++G(d,p)\C11H13N1O2\CA12053\18-Oct-201
 6\0\\# wb97xd 6-311++g** opt geom=allcheck SCRF=(PCM,solvent=dichlorom
 ethane)\\Geom Opt s0\\0,1\C,3.7032328488,1.6361533096,-0.0002467604\H,
 4.7537188951,1.9205972189,0.0203893473\H,3.2434062592,2.0529942041,-0.
 9013950972\C,4.8410530039,-0.575768912,-0.0198300317\H,5.4033429291,-0
 .3572802367,-0.9318009122\N,3.6032409749,0.186838821,0.0065815548\H,3.
 2076685626,2.0611235859,0.8774009629\H,4.6166240669,-1.6410840498,0.00
 7944551\H,5.4595199296,-0.3232888021,0.845297156\C,2.4155829591,-0.411
 5119059,0.0060553349\H,2.4398471622,-1.4968922352,0.0069375145\C,1.189
 1298215,0.2041745623,0.0053678174\C,0.0054378542,-0.6063331278,0.00774
 45212\H,1.1156498676,1.2803141867,-0.0008322428\O,0.06843195,-1.858704
 9097,0.0124217627\C,-1.3424231071,0.0335536253,0.0023499855\C,-2.49906
 60184,-0.7810882524,-0.0058840221\C,-1.5230235319,1.4254626873,0.00553
 39233\O,-2.4321371335,-2.1199048908,-0.0081426109\C,-3.7705190394,-0.1
 969385119,-0.0121567845\C,-2.7801424099,2.000094594,0.0000647553\H,-0.
 6606134815,2.0793731664,0.0129806021\H,-1.4645979964,-2.3369803958,-0.
 0000004269\H,-4.6351623001,-0.8505308421,-0.0187894603\C,-3.9084796802
 ,1.1773899922,-0.0091364451\H,-2.8864493219,3.0780831103,0.0031298341\
 H,-4.9001915501,1.6161673911,-0.0137741663\\Version=ES64L-G09RevD.01\S
 tate=1-A\HF=-632.1642255\RMSD=6.359e-09\RMSF=1.908e-05\Dipole=3.111067
 7,2.0155806,-0.0155636\Quadrupole=17.4166381,-7.3202483,-10.0963898,-3
 .5951376,-0.077631,0.0394185\PG=C01 [X(C11H13N1O2)]\\@


 TERENCE, THIS IS STUPID STUFF:
 YOU EAT YOUR VICTUALS FAST ENOUGH;
 THERE CAN'T BE MUCH AMISS, 'TIS CLEAR
 TO SEE THE RATE YOU DRINK YOUR BEER.
 BUT OH, GOOD LORD, THE VERSE YOU MAKE,
 IT GIVES A CHAP THE BELLY-ACHE.
 THE COW, THE OLD COW, SHE IS DEAD;
 IT SLEEPS WELL, THE HORNED HEAD:
 WE POOR LADS, 'TIS OUR TURN NOW
 TO HEAR SUCH TUNES AS KILLED THE COW.
 PRETTY FRIENDSHIP 'TIS TO RHYME
 YOUR FRIENDS TO DEATH BEFORE THEIR TIME.
 MOPING, MELANCHOLY MAD:
 COME PIPE A TUNE TO DANCE TO, LAD.

     -- A. E. HOUSMAN
 Job cpu time:       0 days  4 hours 18 minutes 30.3 seconds.
 File lengths (MBytes):  RWF=    169 Int=      0 D2E=      0 Chk=     14 Scr=      1
 Normal termination of Gaussian 09 at Tue Oct 18 17:09:01 2016.
