 Entering Gaussian System, Link 0=g09
 Input=2_optS1_rotated_DCM.com
 Output=2_optS1_rotated_DCM.out
 Initial command:
 /share/apps/gaussian/g09_D01/g09/l1.exe "/tmp/3885718.1.serial.q/Gau-26330.inp" -scrdir="/tmp/3885718.1.serial.q/"
 Entering Link 1 = /share/apps/gaussian/g09_D01/g09/l1.exe PID=     26331.
  
 Copyright (c) 1988,1990,1992,1993,1995,1998,2003,2009,2013,
            Gaussian, Inc.  All Rights Reserved.
  
 This is part of the Gaussian(R) 09 program.  It is based on
 the Gaussian(R) 03 system (copyright 2003, Gaussian, Inc.),
 the Gaussian(R) 98 system (copyright 1998, Gaussian, Inc.),
 the Gaussian(R) 94 system (copyright 1995, Gaussian, Inc.),
 the Gaussian 92(TM) system (copyright 1992, Gaussian, Inc.),
 the Gaussian 90(TM) system (copyright 1990, Gaussian, Inc.),
 the Gaussian 88(TM) system (copyright 1988, Gaussian, Inc.),
 the Gaussian 86(TM) system (copyright 1986, Carnegie Mellon
 University), and the Gaussian 82(TM) system (copyright 1983,
 Carnegie Mellon University). Gaussian is a federally registered
 trademark of Gaussian, Inc.
  
 This software contains proprietary and confidential information,
 including trade secrets, belonging to Gaussian, Inc.
  
 This software is provided under written license and may be
 used, copied, transmitted, or stored only in accord with that
 written license.
  
 The following legend is applicable only to US Government
 contracts under FAR:
  
                    RESTRICTED RIGHTS LEGEND
  
 Use, reproduction and disclosure by the US Government is
 subject to restrictions as set forth in subparagraphs (a)
 and (c) of the Commercial Computer Software - Restricted
 Rights clause in FAR 52.227-19.
  
 Gaussian, Inc.
 340 Quinnipiac St., Bldg. 40, Wallingford CT 06492
  
  
 ---------------------------------------------------------------
 Warning -- This program may not be used in any manner that
 competes with the business of Gaussian, Inc. or will provide
 assistance to any competitor of Gaussian, Inc.  The licensee
 of this program is prohibited from giving any competitor of
 Gaussian, Inc. access to this program.  By using this program,
 the user acknowledges that Gaussian, Inc. is engaged in the
 business of creating and licensing software in the field of
 computational chemistry and represents and warrants to the
 licensee that it is not a competitor of Gaussian, Inc. and that
 it will not use this program in any manner prohibited above.
 ---------------------------------------------------------------
  

 Cite this work as:
 Gaussian 09, Revision D.01,
 M. J. Frisch, G. W. Trucks, H. B. Schlegel, G. E. Scuseria, 
 M. A. Robb, J. R. Cheeseman, G. Scalmani, V. Barone, B. Mennucci, 
 G. A. Petersson, H. Nakatsuji, M. Caricato, X. Li, H. P. Hratchian, 
 A. F. Izmaylov, J. Bloino, G. Zheng, J. L. Sonnenberg, M. Hada, 
 M. Ehara, K. Toyota, R. Fukuda, J. Hasegawa, M. Ishida, T. Nakajima, 
 Y. Honda, O. Kitao, H. Nakai, T. Vreven, J. A. Montgomery, Jr., 
 J. E. Peralta, F. Ogliaro, M. Bearpark, J. J. Heyd, E. Brothers, 
 K. N. Kudin, V. N. Staroverov, T. Keith, R. Kobayashi, J. Normand, 
 K. Raghavachari, A. Rendell, J. C. Burant, S. S. Iyengar, J. Tomasi, 
 M. Cossi, N. Rega, J. M. Millam, M. Klene, J. E. Knox, J. B. Cross, 
 V. Bakken, C. Adamo, J. Jaramillo, R. Gomperts, R. E. Stratmann, 
 O. Yazyev, A. J. Austin, R. Cammi, C. Pomelli, J. W. Ochterski, 
 R. L. Martin, K. Morokuma, V. G. Zakrzewski, G. A. Voth, 
 P. Salvador, J. J. Dannenberg, S. Dapprich, A. D. Daniels, 
 O. Farkas, J. B. Foresman, J. V. Ortiz, J. Cioslowski, 
 and D. J. Fox, Gaussian, Inc., Wallingford CT, 2013.
 
 ******************************************
 Gaussian 09:  ES64L-G09RevD.01 24-Apr-2013
                25-Dec-2016 
 ******************************************
 %chk=2_optS1_rotated_DCM.chk
 %mem=12GB
 %nproc=4
 Will use up to    4 processors via shared memory.
 ----------------------------------------------------------------------
 # wb97xd 6-311++g** opt td=(nstates=1,root=1) SCRF=(PCM,solvent=dichlo
 romethane)
 ----------------------------------------------------------------------
 1/14=-1,18=20,19=15,26=3,38=1/1,3;
 2/9=110,12=2,17=6,18=5,40=1/2;
 3/5=4,6=6,7=1111,11=9,16=1,25=1,30=1,70=2201,71=1,72=9,74=-58/1,2,8,3;
 4//1;
 5/5=2,38=5,53=9/2;
 8/6=1,10=2,107=1,108=1/1;
 9/8=1,15=2,41=1,42=1,70=2/14;
 10/5=4/2;
 6/7=2,8=2,9=2,10=2/1;
 7/12=6,13=5,14=1/1,2,3,16;
 1/14=-1,18=20,19=15,26=3/3(2);
 2/9=110/2;
 99//99;
 2/9=110/2;
 3/5=4,6=6,7=1111,11=9,16=1,25=1,30=1,70=2205,71=1,72=9,74=-58/1,2,8,3;
 4/5=5,16=3,69=1/1;
 5/5=2,38=5,53=9/2;
 8/6=1,10=2,107=1,108=1/1;
 9/8=1,15=2,41=1,42=1,49=4,70=2/14;
 10/5=4/2;
 7/12=6,13=5,14=1/1,2,3,16;
 1/14=-1,18=20,19=15,26=3/3(-8);
 2/9=110/2;
 6/7=2,8=2,9=2,10=2/1;
 99//99;
 -----
 title
 -----
 Symbolic Z-matrix:
 Charge =  0 Multiplicity = 1
 C                     3.92437   1.1672    0.06639 
 H                     4.93628   1.37095  -0.27921 
 H                     3.45755   2.10658   0.37307 
 C                     3.79407   0.52429  -2.33155 
 H                     3.97456   1.54448  -2.68021 
 N                     3.17303   0.5476   -1.01682 
 H                     3.973     0.49337   0.9237 
 H                     3.14105   0.01796  -3.04005 
 H                     4.74696  -0.00795  -2.28292 
 C                     1.94979   0.06605  -0.82385 
 H                     1.48059  -0.39294  -1.68698 
 C                     1.2303    0.1086    0.36097 
 C                    -0.04272  -0.60524   0.45142 
 H                     1.69895   0.4802    1.27142 
 O                     0.31829  -1.82031   0.75372 
 C                    -1.35278  -0.08409   0.33536 
 C                    -2.47869  -0.94701   0.49182 
 C                    -1.60675   1.27354   0.04936 
 O                    -2.31753  -2.25664   0.77522 
 C                    -3.76535  -0.459     0.35193 
 C                    -2.8979    1.76479  -0.09024 
 H                    -0.76928   1.95398  -0.06057 
 H                    -1.36275  -2.43985   0.85281 
 H                    -4.61194  -1.12289   0.47048 
 C                    -3.9511    0.88493   0.06196 
 H                    -3.08912   2.80784  -0.30712 
 F                    -5.21752   1.34418  -0.06982 
 

 GradGradGradGradGradGradGradGradGradGradGradGradGradGradGradGradGradGrad
 Berny optimization.
 Initialization pass.
                           ----------------------------
                           !    Initial Parameters    !
                           ! (Angstroms and Degrees)  !
 --------------------------                            --------------------------
 ! Name  Definition              Value          Derivative Info.                !
 --------------------------------------------------------------------------------
 ! R1    R(1,2)                  1.0885         estimate D2E/DX2                !
 ! R2    R(1,3)                  1.0929         estimate D2E/DX2                !
 ! R3    R(1,6)                  1.4566         estimate D2E/DX2                !
 ! R4    R(1,7)                  1.0915         estimate D2E/DX2                !
 ! R5    R(4,5)                  1.0931         estimate D2E/DX2                !
 ! R6    R(4,6)                  1.4542         estimate D2E/DX2                !
 ! R7    R(4,8)                  1.0885         estimate D2E/DX2                !
 ! R8    R(4,9)                  1.0925         estimate D2E/DX2                !
 ! R9    R(6,10)                 1.3287         estimate D2E/DX2                !
 ! R10   R(10,11)                1.0844         estimate D2E/DX2                !
 ! R11   R(10,12)                1.3868         estimate D2E/DX2                !
 ! R12   R(12,13)                1.4623         estimate D2E/DX2                !
 ! R13   R(12,14)                1.0893         estimate D2E/DX2                !
 ! R14   R(13,15)                1.3031         estimate D2E/DX2                !
 ! R15   R(13,16)                1.4147         estimate D2E/DX2                !
 ! R16   R(16,17)                1.4272         estimate D2E/DX2                !
 ! R17   R(16,18)                1.4105         estimate D2E/DX2                !
 ! R18   R(17,19)                1.3496         estimate D2E/DX2                !
 ! R19   R(17,20)                1.3832         estimate D2E/DX2                !
 ! R20   R(18,21)                1.3885         estimate D2E/DX2                !
 ! R21   R(18,22)                1.0846         estimate D2E/DX2                !
 ! R22   R(19,23)                0.9753         estimate D2E/DX2                !
 ! R23   R(20,24)                1.0824         estimate D2E/DX2                !
 ! R24   R(20,25)                1.3874         estimate D2E/DX2                !
 ! R25   R(21,25)                1.3808         estimate D2E/DX2                !
 ! R26   R(21,26)                1.0824         estimate D2E/DX2                !
 ! R27   R(25,27)                1.3535         estimate D2E/DX2                !
 ! A1    A(2,1,3)              108.9829         estimate D2E/DX2                !
 ! A2    A(2,1,6)              108.8456         estimate D2E/DX2                !
 ! A3    A(2,1,7)              108.8741         estimate D2E/DX2                !
 ! A4    A(3,1,6)              110.7305         estimate D2E/DX2                !
 ! A5    A(3,1,7)              109.2235         estimate D2E/DX2                !
 ! A6    A(6,1,7)              110.1495         estimate D2E/DX2                !
 ! A7    A(5,4,6)              110.1154         estimate D2E/DX2                !
 ! A8    A(5,4,8)              109.0012         estimate D2E/DX2                !
 ! A9    A(5,4,9)              108.9559         estimate D2E/DX2                !
 ! A10   A(6,4,8)              109.8599         estimate D2E/DX2                !
 ! A11   A(6,4,9)              109.879          estimate D2E/DX2                !
 ! A12   A(8,4,9)              109.0031         estimate D2E/DX2                !
 ! A13   A(1,6,4)              117.3131         estimate D2E/DX2                !
 ! A14   A(1,6,10)             121.401          estimate D2E/DX2                !
 ! A15   A(4,6,10)             121.2424         estimate D2E/DX2                !
 ! A16   A(6,10,11)            115.8589         estimate D2E/DX2                !
 ! A17   A(6,10,12)            126.199          estimate D2E/DX2                !
 ! A18   A(11,10,12)           117.9399         estimate D2E/DX2                !
 ! A19   A(10,12,13)           119.3089         estimate D2E/DX2                !
 ! A20   A(10,12,14)           120.0868         estimate D2E/DX2                !
 ! A21   A(13,12,14)           119.2986         estimate D2E/DX2                !
 ! A22   A(12,13,15)           103.2001         estimate D2E/DX2                !
 ! A23   A(12,13,16)           128.4091         estimate D2E/DX2                !
 ! A24   A(15,13,16)           128.2486         estimate D2E/DX2                !
 ! A25   A(13,16,17)           119.9229         estimate D2E/DX2                !
 ! A26   A(13,16,18)           122.5449         estimate D2E/DX2                !
 ! A27   A(17,16,18)           117.527          estimate D2E/DX2                !
 ! A28   A(16,17,19)           121.0345         estimate D2E/DX2                !
 ! A29   A(16,17,20)           120.6269         estimate D2E/DX2                !
 ! A30   A(19,17,20)           118.3383         estimate D2E/DX2                !
 ! A31   A(16,18,21)           121.8954         estimate D2E/DX2                !
 ! A32   A(16,18,22)           119.0362         estimate D2E/DX2                !
 ! A33   A(21,18,22)           119.0679         estimate D2E/DX2                !
 ! A34   A(17,19,23)           108.4149         estimate D2E/DX2                !
 ! A35   A(17,20,24)           120.0067         estimate D2E/DX2                !
 ! A36   A(17,20,25)           119.1734         estimate D2E/DX2                !
 ! A37   A(24,20,25)           120.8198         estimate D2E/DX2                !
 ! A38   A(18,21,25)           118.2133         estimate D2E/DX2                !
 ! A39   A(18,21,26)           121.6936         estimate D2E/DX2                !
 ! A40   A(25,21,26)           120.0923         estimate D2E/DX2                !
 ! A41   A(20,25,21)           122.5607         estimate D2E/DX2                !
 ! A42   A(20,25,27)           118.3133         estimate D2E/DX2                !
 ! A43   A(21,25,27)           119.1254         estimate D2E/DX2                !
 ! D1    D(2,1,6,4)             -9.5419         estimate D2E/DX2                !
 ! D2    D(2,1,6,10)           172.8297         estimate D2E/DX2                !
 ! D3    D(3,1,6,4)            110.2391         estimate D2E/DX2                !
 ! D4    D(3,1,6,10)           -67.3893         estimate D2E/DX2                !
 ! D5    D(7,1,6,4)           -128.8388         estimate D2E/DX2                !
 ! D6    D(7,1,6,10)            53.5328         estimate D2E/DX2                !
 ! D7    D(5,4,6,1)            -61.1341         estimate D2E/DX2                !
 ! D8    D(5,4,6,10)           116.4983         estimate D2E/DX2                !
 ! D9    D(8,4,6,1)            178.8026         estimate D2E/DX2                !
 ! D10   D(8,4,6,10)            -3.565          estimate D2E/DX2                !
 ! D11   D(9,4,6,1)             58.8852         estimate D2E/DX2                !
 ! D12   D(9,4,6,10)          -123.4824         estimate D2E/DX2                !
 ! D13   D(1,6,10,11)         -178.8637         estimate D2E/DX2                !
 ! D14   D(1,6,10,12)            1.6909         estimate D2E/DX2                !
 ! D15   D(4,6,10,11)            3.601          estimate D2E/DX2                !
 ! D16   D(4,6,10,12)         -175.8445         estimate D2E/DX2                !
 ! D17   D(6,10,12,13)        -172.8884         estimate D2E/DX2                !
 ! D18   D(6,10,12,14)          -6.0246         estimate D2E/DX2                !
 ! D19   D(11,10,12,13)          7.6765         estimate D2E/DX2                !
 ! D20   D(11,10,12,14)        174.5402         estimate D2E/DX2                !
 ! D21   D(10,12,13,15)         84.1908         estimate D2E/DX2                !
 ! D22   D(10,12,13,16)        -99.9048         estimate D2E/DX2                !
 ! D23   D(14,12,13,15)        -82.7773         estimate D2E/DX2                !
 ! D24   D(14,12,13,16)         93.127          estimate D2E/DX2                !
 ! D25   D(12,13,16,17)       -178.2687         estimate D2E/DX2                !
 ! D26   D(12,13,16,18)          2.5784         estimate D2E/DX2                !
 ! D27   D(15,13,16,17)         -3.3484         estimate D2E/DX2                !
 ! D28   D(15,13,16,18)        177.4987         estimate D2E/DX2                !
 ! D29   D(13,16,17,19)          1.2494         estimate D2E/DX2                !
 ! D30   D(13,16,17,20)       -178.5556         estimate D2E/DX2                !
 ! D31   D(18,16,17,19)       -179.5559         estimate D2E/DX2                !
 ! D32   D(18,16,17,20)          0.6392         estimate D2E/DX2                !
 ! D33   D(13,16,18,21)        178.577          estimate D2E/DX2                !
 ! D34   D(13,16,18,22)         -1.6819         estimate D2E/DX2                !
 ! D35   D(17,16,18,21)         -0.5951         estimate D2E/DX2                !
 ! D36   D(17,16,18,22)        179.146          estimate D2E/DX2                !
 ! D37   D(16,17,19,23)          0.9099         estimate D2E/DX2                !
 ! D38   D(20,17,19,23)       -179.2808         estimate D2E/DX2                !
 ! D39   D(16,17,20,24)        179.8605         estimate D2E/DX2                !
 ! D40   D(16,17,20,25)         -0.2561         estimate D2E/DX2                !
 ! D41   D(19,17,20,24)          0.0503         estimate D2E/DX2                !
 ! D42   D(19,17,20,25)        179.9337         estimate D2E/DX2                !
 ! D43   D(16,18,21,25)          0.162          estimate D2E/DX2                !
 ! D44   D(16,18,21,26)        179.833          estimate D2E/DX2                !
 ! D45   D(22,18,21,25)       -179.5791         estimate D2E/DX2                !
 ! D46   D(22,18,21,26)          0.0919         estimate D2E/DX2                !
 ! D47   D(17,20,25,21)         -0.2064         estimate D2E/DX2                !
 ! D48   D(17,20,25,27)       -179.9324         estimate D2E/DX2                !
 ! D49   D(24,20,25,21)        179.676          estimate D2E/DX2                !
 ! D50   D(24,20,25,27)         -0.0499         estimate D2E/DX2                !
 ! D51   D(18,21,25,20)          0.2553         estimate D2E/DX2                !
 ! D52   D(18,21,25,27)        179.9791         estimate D2E/DX2                !
 ! D53   D(26,21,25,20)       -179.4212         estimate D2E/DX2                !
 ! D54   D(26,21,25,27)          0.3026         estimate D2E/DX2                !
 --------------------------------------------------------------------------------
 Trust Radius=3.00D-01 FncErr=1.00D-07 GrdErr=1.00D-06
 Number of steps in this run=    134 maximum allowed number of steps=    162.
 GradGradGradGradGradGradGradGradGradGradGradGradGradGradGradGradGradGrad

                          Input orientation:                          
 ---------------------------------------------------------------------
 Center     Atomic      Atomic             Coordinates (Angstroms)
 Number     Number       Type             X           Y           Z
 ---------------------------------------------------------------------
      1          6           0        3.924368    1.167201    0.066388
      2          1           0        4.936281    1.370945   -0.279206
      3          1           0        3.457545    2.106581    0.373068
      4          6           0        3.794067    0.524287   -2.331553
      5          1           0        3.974561    1.544483   -2.680209
      6          7           0        3.173031    0.547597   -1.016824
      7          1           0        3.973004    0.493372    0.923695
      8          1           0        3.141048    0.017958   -3.040049
      9          1           0        4.746956   -0.007951   -2.282917
     10          6           0        1.949791    0.066050   -0.823849
     11          1           0        1.480591   -0.392935   -1.686983
     12          6           0        1.230295    0.108602    0.360970
     13          6           0       -0.042724   -0.605235    0.451417
     14          1           0        1.698950    0.480200    1.271423
     15          8           0        0.318285   -1.820311    0.753720
     16          6           0       -1.352779   -0.084086    0.335364
     17          6           0       -2.478685   -0.947009    0.491820
     18          6           0       -1.606747    1.273535    0.049357
     19          8           0       -2.317529   -2.256639    0.775223
     20          6           0       -3.765346   -0.459004    0.351927
     21          6           0       -2.897900    1.764788   -0.090241
     22          1           0       -0.769278    1.953978   -0.060568
     23          1           0       -1.362749   -2.439853    0.852810
     24          1           0       -4.611939   -1.122891    0.470484
     25          6           0       -3.951097    0.884932    0.061964
     26          1           0       -3.089123    2.807835   -0.307118
     27          9           0       -5.217516    1.344179   -0.069824
 ---------------------------------------------------------------------
                    Distance matrix (angstroms):
                    1          2          3          4          5
     1  C    0.000000
     2  H    1.088538   0.000000
     3  H    1.092891   1.775748   0.000000
     4  C    2.486049   2.496720   3.151488   0.000000
     5  H    2.772843   2.592265   3.147342   1.093133   0.000000
     6  N    1.456628   2.081113   2.107885   1.454215   2.098352
     7  H    1.091506   1.773417   1.780823   3.260309   3.754059
     8  H    3.403572   3.560293   4.013961   1.088471   1.776093
     9  H    2.752611   2.439684   3.631540   1.092538   1.778900
    10  C    2.429817   3.304317   2.805298   2.425800   3.119540
    11  H    3.388271   4.127336   3.794699   2.570785   3.310585
    12  C    2.909543   3.967073   2.992108   3.741043   4.340682
    13  C    4.362063   5.406440   4.428540   4.872546   5.528738
    14  H    2.622321   3.698404   2.558283   4.168080   4.682574
    15  O    4.733021   5.707621   5.041858   5.205488   6.040038
    16  C    5.430133   6.484373   5.285798   5.828601   6.334546
    17  C    6.756476   7.806991   6.676626   7.034456   7.610104
    18  C    5.532163   6.551996   5.142549   5.949697   6.218918
    19  O    7.154468   8.178566   7.249200   7.398460   8.122742
    20  C    7.864971   8.914334   7.665039   8.081624   8.550671
    21  C    6.850181   7.846350   6.381470   7.165525   7.347597
    22  H    4.760824   5.739437   4.251748   5.293912   5.434539
    23  H    6.448481   7.448585   6.643452   6.746780   7.539498
    24  H    8.847392   9.896957   8.692270   9.012521   9.527315
    25  C    7.880523   8.907193   7.515131   8.114589   8.412525
    26  H    7.212506   8.153069   6.619159   7.529358   7.557993
    27  F    9.144611  10.155991   8.719753   9.327179   9.557642
                    6          7          8          9         10
     6  N    0.000000
     7  H    2.099645   0.000000
     8  H    2.091645   4.077921   0.000000
     9  H    2.094962   3.336568   1.775630   0.000000
    10  C    1.328700   2.707380   2.516535   3.155707   0.000000
    11  H    2.048918   3.716625   2.180995   3.342528   1.084351
    12  C    2.421829   2.826156   3.902067   4.401208   1.386824
    13  C    3.718311   4.189995   4.766037   5.547465   2.459074
    14  H    2.722780   2.300524   4.569694   4.707650   2.150490
    15  O    4.109914   4.328856   5.073451   5.667357   2.951083
    16  C    4.765542   5.389207   5.621237   6.638370   3.503325
    17  C    6.037528   6.624614   6.707209   7.796851   4.729553
    18  C    4.950758   5.701468   5.801936   6.888487   3.856095
    19  O    6.420391   6.866980   7.037482   8.019711   5.114874
    20  C    7.143375   7.817672   7.709168   8.922171   5.858406
    21  C    6.260696   7.060728   6.944183   8.148267   5.188834
    22  H    4.293499   5.058793   5.283572   6.262335   3.397088
    23  H    5.744013   6.089261   6.440448   7.285288   4.479247
    24  H    8.099900   8.747511   8.586861   9.819024   6.793024
    25  C    7.213236   7.980431   7.789265   9.052725   6.022932
    26  H    6.695292   7.532946   7.353051   8.557837   5.759779
    27  F    8.481311   9.283136   8.969208  10.296443   7.319321
                   11         12         13         14         15
    11  H    0.000000
    12  C    2.123276   0.000000
    13  C    2.634068   1.462300   0.000000
    14  H    3.092283   1.089333   2.209979   0.000000
    15  O    3.057023   2.169498   1.303121   2.732509   0.000000
    16  C    3.494748   2.590378   1.414676   3.241554   2.445803
    17  C    4.553026   3.858493   2.460152   4.483006   2.941817
    18  C    3.914544   3.082690   2.477417   3.612542   3.711301
    19  O    4.895055   4.284043   2.829615   4.885551   2.671771
    20  C    5.628621   5.027791   3.726821   5.620152   4.323267
    21  C    5.135809   4.470854   3.749991   4.963399   4.889688
    22  H    3.635263   2.753434   2.709166   3.168339   4.011373
    23  H    4.327240   3.668843   2.295519   4.251582   1.794304
    24  H    6.504339   5.971622   4.598484   6.560391   4.987357
    25  C    5.847649   5.247753   4.200911   5.792204   5.101420
    26  H    5.747281   5.137078   4.637345   5.552956   5.844274
    27  F    7.106153   6.579248   5.554312   7.098092   6.429410
                   16         17         18         19         20
    16  C    0.000000
    17  C    1.427158   0.000000
    18  C    1.410473   2.426286   0.000000
    19  O    2.417479   1.349600   3.673448   0.000000
    20  C    2.441581   1.383190   2.784383   2.346667   0.000000
    21  C    2.446809   2.805063   1.388486   4.154243   2.427597
    22  H    2.156604   3.412174   1.084638   4.563433   3.868987
    23  H    2.411947   1.898476   3.807141   0.975291   3.153905
    24  H    3.423375   2.140599   3.866702   2.577318   1.082368
    25  C    2.786575   2.389306   2.376373   3.612029   1.387352
    26  H    3.433785   3.887131   2.163005   5.236002   3.400567
    27  F    4.140086   3.614717   3.613426   4.699991   2.353325
                   21         22         23         24         25
    21  C    0.000000
    22  H    2.137219   0.000000
    23  H    4.574390   4.526833   0.000000
    24  H    3.404561   4.951281   3.526726   0.000000
    25  C    1.380774   3.358846   4.287094   2.152894   0.000000
    26  H    1.082381   2.484258   5.644823   4.286518   2.139340
    27  F    2.357530   4.489851   5.479907   2.597131   1.353548
                   26         27
    26  H    0.000000
    27  F    2.593965   0.000000
 Stoichiometry    C11H12FNO2
 Framework group  C1[X(C11H12FNO2)]
 Deg. of freedom    75
 Full point group                 C1      NOp   1
 Largest Abelian subgroup         C1      NOp   1
 Largest concise Abelian subgroup C1      NOp   1
                         Standard orientation:                         
 ---------------------------------------------------------------------
 Center     Atomic      Atomic             Coordinates (Angstroms)
 Number     Number       Type             X           Y           Z
 ---------------------------------------------------------------------
      1          6           0        4.368702   -0.582879   -1.109731
      2          1           0        5.427348   -0.811387   -1.000335
      3          1           0        3.885309   -1.393015   -1.661474
      4          6           0        4.597519   -0.819480    1.354432
      5          1           0        4.857887   -1.879319    1.292060
      6          7           0        3.779438   -0.437532    0.214432
      7          1           0        4.264427    0.346954   -1.671802
      8          1           0        4.049815   -0.642880    2.278338
      9          1           0        5.516307   -0.228455    1.367012
     10          6           0        2.528473   -0.018865    0.373325
     11          1           0        2.187719    0.074870    1.398467
     12          6           0        1.634012    0.292360   -0.639768
     13          6           0        0.343632    0.888881   -0.297127
     14          1           0        1.964462    0.296628   -1.677762
     15          8           0        0.619871    2.158454   -0.197126
     16          6           0       -0.917558    0.256281   -0.194519
     17          6           0       -2.077049    1.026809    0.119558
     18          6           0       -1.086796   -1.132374   -0.374600
     19          8           0       -1.997739    2.362234    0.297799
     20          6           0       -3.312312    0.418858    0.252735
     21          6           0       -2.326452   -1.743622   -0.242228
     22          1           0       -0.224308   -1.739364   -0.627814
     23          1           0       -1.072151    2.637011    0.160046
     24          1           0       -4.184710    1.012611    0.493362
     25          6           0       -3.413951   -0.952887    0.071815
     26          1           0       -2.453075   -2.809213   -0.383762
     27          9           0       -4.631275   -1.529523    0.204878
 ---------------------------------------------------------------------
 Rotational constants (GHZ):      1.2327080      0.2632086      0.2313481
 Standard basis: 6-311++G(d,p) (5D, 7F)
 There are   429 symmetry adapted cartesian basis functions of A   symmetry.
 There are   414 symmetry adapted basis functions of A   symmetry.
   414 basis functions,   648 primitive gaussians,   429 cartesian basis functions
    55 alpha electrons       55 beta electrons
       nuclear repulsion energy       940.0037577525 Hartrees.
 NAtoms=   27 NActive=   27 NUniq=   27 SFac= 1.00D+00 NAtFMM=   60 NAOKFM=F Big=F
 Integral buffers will be    131072 words long.
 Raffenetti 1 integral format.
 Two-electron integral symmetry is turned on.
 Nuclear repulsion after empirical dispersion term =      939.9883320827 Hartrees.
 ------------------------------------------------------------------------------
 Polarizable Continuum Model (PCM)
 =================================
 Model                : PCM (using non-symmetric T matrix).
 Atomic radii         : UFF (Universal Force Field).
 Polarization charges : Total charges.
 Charge compensation  : None.
 Solution method      : On-the-fly selection.
 Cavity type          : Scaled VdW (van der Waals Surface) (Alpha=1.100).
 Cavity algorithm     : GePol (No added spheres)
                        Default sphere list used, NSphG=   27.
                        Lebedev-Laikov grids with approx.  5.0 points / Ang**2.
                        Smoothing algorithm: Karplus/York (Gamma=1.0000).
                        Polarization charges: spherical gaussians, with
                                              point-specific exponents (IZeta= 3).
                        Self-potential: point-specific (ISelfS= 7).
                        Self-field    : sphere-specific E.n sum rule (ISelfD= 2).
 1st derivatives      : Analytical E(r).r(x)/FMM algorithm (CHGder, D1EAlg=3).
                        Cavity 1st derivative terms included.
 Solvent              : Dichloromethane, Eps=   8.930000 Eps(inf)=   2.028346
 ------------------------------------------------------------------------------
 One-electron integrals computed using PRISM.
 NBasis=   414 RedAO= T EigKep=  2.01D-06  NBF=   414
 NBsUse=   412 1.00D-06 EigRej=  7.10D-07 NBFU=   412
 ExpMin= 3.60D-02 ExpMax= 1.14D+04 ExpMxC= 1.72D+03 IAcc=3 IRadAn=         5 AccDes= 0.00D+00
 Harris functional with IExCor= 4639 and IRadAn=       5 diagonalized for initial guess.
 HarFok:  IExCor= 4639 AccDes= 0.00D+00 IRadAn=         5 IDoV= 1 UseB2=F ITyADJ=14
 ICtDFT=  3500011 ScaDFX=  1.000000  1.000000  1.000000  1.000000
 FoFCou: FMM=F IPFlag=           0 FMFlag=      100000 FMFlg1=           0
         NFxFlg=           0 DoJE=T BraDBF=F KetDBF=T FulRan=T
         wScrn=  0.000000 ICntrl=     500 IOpCl=  0 I1Cent=   200000004 NGrid=           0
         NMat0=    1 NMatS0=      1 NMatT0=    0 NMatD0=    1 NMtDS0=    0 NMtDT0=    0
 Petite list used in FoFCou.
 Requested convergence on RMS density matrix=1.00D-08 within 128 cycles.
 Requested convergence on MAX density matrix=1.00D-06.
 Requested convergence on             energy=1.00D-06.
 No special actions if energy rises.
 Inv3:  Mode=1 IEnd=    14401443.
 Iteration    1 A*A^-1 deviation from unit magnitude is 5.11D-15 for   2145.
 Iteration    1 A*A^-1 deviation from orthogonality  is 5.57D-15 for   2176   1324.
 Iteration    1 A^-1*A deviation from unit magnitude is 5.22D-15 for   2166.
 Iteration    1 A^-1*A deviation from orthogonality  is 1.95D-10 for   2034   2027.
 Iteration    2 A*A^-1 deviation from unit magnitude is 2.78D-15 for    619.
 Iteration    2 A*A^-1 deviation from orthogonality  is 2.72D-15 for   2177    515.
 Iteration    2 A^-1*A deviation from unit magnitude is 9.99D-16 for    667.
 Iteration    2 A^-1*A deviation from orthogonality  is 1.20D-15 for   2168    375.
 Error on total polarization charges =  0.01293
 SCF Done:  E(RwB97XD) =  -731.358938563     A.U. after   18 cycles
            NFock= 18  Conv=0.89D-08     -V/T= 2.0039
 DoSCS=F DFT=T ScalE2(SS,OS)=  1.000000  1.000000
 ExpMin= 3.60D-02 ExpMax= 1.14D+04 ExpMxC= 1.72D+03 IAcc=3 IRadAn=         5 AccDes= 0.00D+00
 HarFok:  IExCor=  205 AccDes= 0.00D+00 IRadAn=         5 IDoV=-2 UseB2=F ITyADJ=14
 ICtDFT= 12500011 ScaDFX=  1.000000  1.000000  1.000000  1.000000
 Range of M.O.s used for correlation:    16   412
 NBasis=   414 NAE=    55 NBE=    55 NFC=    15 NFV=     0
 NROrb=    397 NOA=    40 NOB=    40 NVA=   357 NVB=   357

 **** Warning!!: The largest alpha MO coefficient is  0.12738112D+03

 Would need an additional         20568500000 words for in-memory AO integral storage.
 NEqPCM:  Using equilibrium solvation (IEInf=0, Eps=   8.9300, EpsInf=   2.0283)
 Orbital symmetries:
       Occupied  (A) (A) (A) (A) (A) (A) (A) (A) (A) (A) (A) (A)
                 (A) (A) (A) (A) (A) (A) (A) (A) (A) (A) (A) (A)
                 (A) (A) (A) (A) (A) (A) (A) (A) (A) (A) (A) (A)
                 (A) (A) (A) (A) (A) (A) (A) (A) (A) (A) (A) (A)
                 (A) (A) (A) (A) (A) (A) (A)
       Virtual   (A) (A) (A) (A) (A) (A) (A) (A) (A) (A) (A) (A)
                 (A) (A) (A) (A) (A) (A) (A) (A) (A) (A) (A) (A)
                 (A) (A) (A) (A) (A) (A) (A) (A) (A) (A) (A) (A)
                 (A) (A) (A) (A) (A) (A) (A) (A) (A) (A) (A) (A)
                 (A) (A) (A) (A) (A) (A) (A) (A) (A) (A) (A) (A)
                 (A) (A) (A) (A) (A) (A) (A) (A) (A) (A) (A) (A)
                 (A) (A) (A) (A) (A) (A) (A) (A) (A) (A) (A) (A)
                 (A) (A) (A) (A) (A) (A) (A) (A) (A) (A) (A) (A)
                 (A) (A) (A) (A) (A) (A) (A) (A) (A) (A) (A) (A)
                 (A) (A) (A) (A) (A) (A) (A) (A) (A) (A) (A) (A)
                 (A) (A) (A) (A) (A) (A) (A) (A) (A) (A) (A) (A)
                 (A) (A) (A) (A) (A) (A) (A) (A) (A) (A) (A) (A)
                 (A) (A) (A) (A) (A) (A) (A) (A) (A) (A) (A) (A)
                 (A) (A) (A) (A) (A) (A) (A) (A) (A) (A) (A) (A)
                 (A) (A) (A) (A) (A) (A) (A) (A) (A) (A) (A) (A)
                 (A) (A) (A) (A) (A) (A) (A) (A) (A) (A) (A) (A)
                 (A) (A) (A) (A) (A) (A) (A) (A) (A) (A) (A) (A)
                 (A) (A) (A) (A) (A) (A) (A) (A) (A) (A) (A) (A)
                 (A) (A) (A) (A) (A) (A) (A) (A) (A) (A) (A) (A)
                 (A) (A) (A) (A) (A) (A) (A) (A) (A) (A) (A) (A)
                 (A) (A) (A) (A) (A) (A) (A) (A) (A) (A) (A) (A)
                 (A) (A) (A) (A) (A) (A) (A) (A) (A) (A) (A) (A)
                 (A) (A) (A) (A) (A) (A) (A) (A) (A) (A) (A) (A)
                 (A) (A) (A) (A) (A) (A) (A) (A) (A) (A) (A) (A)
                 (A) (A) (A) (A) (A) (A) (A) (A) (A) (A) (A) (A)
                 (A) (A) (A) (A) (A) (A) (A) (A) (A) (A) (A) (A)
                 (A) (A) (A) (A) (A) (A) (A) (A) (A) (A) (A) (A)
                 (A) (A) (A) (A) (A) (A) (A) (A) (A) (A) (A) (A)
                 (A) (A) (A) (A) (A) (A) (A) (A) (A) (A) (A) (A)
                 (A) (A) (A) (A) (A) (A) (A) (A) (A)
     8 initial guesses have been made.
 Convergence on wavefunction:    0.000001000000000
 Iteration     1 Dimension     8 NMult     0 NNew      8
 CISAX will form     8 AO SS matrices at one time.
 Iteration     2 Dimension    12 NMult     8 NNew      4
 Iteration     3 Dimension    16 NMult    12 NNew      4
 Iteration     4 Dimension    20 NMult    16 NNew      4
 Iteration     5 Dimension    24 NMult    20 NNew      4
 Iteration     6 Dimension    28 NMult    24 NNew      4
 Iteration     7 Dimension    32 NMult    28 NNew      4
 Iteration     8 Dimension    36 NMult    32 NNew      4
 Iteration     9 Dimension    40 NMult    36 NNew      4
 Iteration    10 Dimension    44 NMult    40 NNew      4
 ***********************************************************************
 Excited states from <AA,BB:AA,BB> singles matrix:
 ***********************************************************************
 
 Ground to excited state transition densities written to RWF  633
 Ground to excited state transition electric dipole moments (Au):
       state          X           Y           Z        Dip. S.      Osc.
         1        -0.0509     -0.0410      0.0264      0.0050      0.0003
 Ground to excited state transition velocity dipole moments (Au):
       state          X           Y           Z        Dip. S.      Osc.
         1         0.0045      0.0062      0.0012      0.0001      0.0005
 Ground to excited state transition magnetic dipole moments (Au):
       state          X           Y           Z
         1        -0.1551     -0.2832     -0.0262
 Ground to excited state transition velocity quadrupole moments (Au):
       state          XX          YY          ZZ          XY          XZ          YZ
         1        -0.0130      0.0091     -0.0070      0.0141     -0.0026     -0.0056
 <0|del|b> * <b|rxdel|0> + <0|del|b> * <b|delr+rdel|0>
 Rotatory Strengths (R) in cgs (10**-40 erg-esu-cm/Gauss)
       state          XX          YY          ZZ    R(velocity)    E-M Angle
         1        -7.5355     -3.3004    -10.4915     -7.1091      171.73
 1/2[<0|r|b>*<b|rxdel|0> + (<0|rxdel|b>*<b|r|0>)*]
 Rotatory Strengths (R) in cgs (10**-40 erg-esu-cm/Gauss)
       state          XX          YY          ZZ     R(length)
         1        -5.5836     -8.2172      0.4875     -4.4378
  1/2[<0|del|b>*<b|r|0> + (<0|r|b>*<b|del|0>)*] (Au)
       state          X           Y           Z        Dip. S.   Osc.(frdel)
         1        -0.0002     -0.0003      0.0000      0.0004      0.0003

 Excitation energies and oscillator strengths:
 
 Excited State   1:      Singlet-A      2.2232 eV  557.70 nm  f=0.0003  <S**2>=0.000
      52 -> 56         0.14650
      55 -> 56         0.66693
      55 -> 67         0.11141
 This state for optimization and/or second-order correction.
 Total Energy, E(TD-HF/TD-KS) =  -731.277239197    
 Copying the excited state density for this state as the 1-particle RhoCI density.
 SavETr:  write IOETrn=   770 NScale= 10 NData=  16 NLR=1 NState=    1 LETran=      28.
          IDoAtm=111111111111111111111111111
 NEqPCM:  Using equilibrium solvation (IEInf=0, Eps=   8.9300, EpsInf=   2.0283)
          Differentiating once with respect to electric field.
                with respect to dipole field.
          Differentiating once with respect to nuclear coordinates.
          There are     1 degrees of freedom in the 1st order CPHF.  IDoFFX=0 NUNeed=     1.
 LinEq1:  Iter=  0 NonCon=     1 RMS=5.31D-03 Max=1.02D-01 NDo=     1
 AX will form     1 AO Fock derivatives at one time.
 LinEq1:  Iter=  1 NonCon=     1 RMS=1.84D-03 Max=5.63D-02 NDo=     1
 LinEq1:  Iter=  2 NonCon=     1 RMS=1.40D-03 Max=5.63D-02 NDo=     1
 LinEq1:  Iter=  3 NonCon=     1 RMS=6.67D-04 Max=4.32D-02 NDo=     1
 LinEq1:  Iter=  4 NonCon=     1 RMS=3.98D-04 Max=9.84D-03 NDo=     1
 LinEq1:  Iter=  5 NonCon=     1 RMS=2.00D-04 Max=9.55D-03 NDo=     1
 LinEq1:  Iter=  6 NonCon=     1 RMS=1.01D-04 Max=4.34D-03 NDo=     1
 LinEq1:  Iter=  7 NonCon=     1 RMS=4.79D-05 Max=2.55D-03 NDo=     1
 LinEq1:  Iter=  8 NonCon=     1 RMS=2.35D-05 Max=1.42D-03 NDo=     1
 LinEq1:  Iter=  9 NonCon=     1 RMS=1.13D-05 Max=6.09D-04 NDo=     1
 LinEq1:  Iter= 10 NonCon=     1 RMS=5.09D-06 Max=1.95D-04 NDo=     1
 LinEq1:  Iter= 11 NonCon=     1 RMS=2.68D-06 Max=9.50D-05 NDo=     1
 LinEq1:  Iter= 12 NonCon=     1 RMS=1.33D-06 Max=6.72D-05 NDo=     1
 LinEq1:  Iter= 13 NonCon=     1 RMS=6.58D-07 Max=3.00D-05 NDo=     1
 LinEq1:  Iter= 14 NonCon=     1 RMS=2.71D-07 Max=9.20D-06 NDo=     1
 LinEq1:  Iter= 15 NonCon=     1 RMS=1.12D-07 Max=4.54D-06 NDo=     1
 LinEq1:  Iter= 16 NonCon=     1 RMS=3.94D-08 Max=1.34D-06 NDo=     1
 LinEq1:  Iter= 17 NonCon=     1 RMS=1.91D-08 Max=6.19D-07 NDo=     1
 LinEq1:  Iter= 18 NonCon=     1 RMS=8.83D-09 Max=2.65D-07 NDo=     1
 LinEq1:  Iter= 19 NonCon=     1 RMS=3.43D-09 Max=1.31D-07 NDo=     1
 LinEq1:  Iter= 20 NonCon=     1 RMS=1.65D-09 Max=5.03D-08 NDo=     1
 LinEq1:  Iter= 21 NonCon=     1 RMS=5.28D-10 Max=1.33D-08 NDo=     1
 LinEq1:  Iter= 22 NonCon=     1 RMS=2.61D-10 Max=8.88D-09 NDo=     1
 LinEq1:  Iter= 23 NonCon=     1 RMS=8.18D-11 Max=2.26D-09 NDo=     1
 LinEq1:  Iter= 24 NonCon=     0 RMS=2.36D-11 Max=8.27D-10 NDo=     1
 Linear equations converged to 1.000D-10 1.000D-09 after    24 iterations.
 End of Minotr F.D. properties file   721 does not exist.
 End of Minotr F.D. properties file   722 does not exist.
 End of Minotr F.D. properties file   788 does not exist.

 **********************************************************************

            Population analysis using the SCF density.

 **********************************************************************

 Orbital symmetries:
       Occupied  (A) (A) (A) (A) (A) (A) (A) (A) (A) (A) (A) (A)
                 (A) (A) (A) (A) (A) (A) (A) (A) (A) (A) (A) (A)
                 (A) (A) (A) (A) (A) (A) (A) (A) (A) (A) (A) (A)
                 (A) (A) (A) (A) (A) (A) (A) (A) (A) (A) (A) (A)
                 (A) (A) (A) (A) (A) (A) (A)
       Virtual   (A) (A) (A) (A) (A) (A) (A) (A) (A) (A) (A) (A)
                 (A) (A) (A) (A) (A) (A) (A) (A) (A) (A) (A) (A)
                 (A) (A) (A) (A) (A) (A) (A) (A) (A) (A) (A) (A)
                 (A) (A) (A) (A) (A) (A) (A) (A) (A) (A) (A) (A)
                 (A) (A) (A) (A) (A) (A) (A) (A) (A) (A) (A) (A)
                 (A) (A) (A) (A) (A) (A) (A) (A) (A) (A) (A) (A)
                 (A) (A) (A) (A) (A) (A) (A) (A) (A) (A) (A) (A)
                 (A) (A) (A) (A) (A) (A) (A) (A) (A) (A) (A) (A)
                 (A) (A) (A) (A) (A) (A) (A) (A) (A) (A) (A) (A)
                 (A) (A) (A) (A) (A) (A) (A) (A) (A) (A) (A) (A)
                 (A) (A) (A) (A) (A) (A) (A) (A) (A) (A) (A) (A)
                 (A) (A) (A) (A) (A) (A) (A) (A) (A) (A) (A) (A)
                 (A) (A) (A) (A) (A) (A) (A) (A) (A) (A) (A) (A)
                 (A) (A) (A) (A) (A) (A) (A) (A) (A) (A) (A) (A)
                 (A) (A) (A) (A) (A) (A) (A) (A) (A) (A) (A) (A)
                 (A) (A) (A) (A) (A) (A) (A) (A) (A) (A) (A) (A)
                 (A) (A) (A) (A) (A) (A) (A) (A) (A) (A) (A) (A)
                 (A) (A) (A) (A) (A) (A) (A) (A) (A) (A) (A) (A)
                 (A) (A) (A) (A) (A) (A) (A) (A) (A) (A) (A) (A)
                 (A) (A) (A) (A) (A) (A) (A) (A) (A) (A) (A) (A)
                 (A) (A) (A) (A) (A) (A) (A) (A) (A) (A) (A) (A)
                 (A) (A) (A) (A) (A) (A) (A) (A) (A) (A) (A) (A)
                 (A) (A) (A) (A) (A) (A) (A) (A) (A) (A) (A) (A)
                 (A) (A) (A) (A) (A) (A) (A) (A) (A) (A) (A) (A)
                 (A) (A) (A) (A) (A) (A) (A) (A) (A) (A) (A) (A)
                 (A) (A) (A) (A) (A) (A) (A) (A) (A) (A) (A) (A)
                 (A) (A) (A) (A) (A) (A) (A) (A) (A) (A) (A) (A)
                 (A) (A) (A) (A) (A) (A) (A) (A) (A) (A) (A) (A)
                 (A) (A) (A) (A) (A) (A) (A) (A) (A) (A) (A) (A)
                 (A) (A) (A) (A) (A) (A) (A) (A) (A)
 The electronic state is 1-A.
 Alpha  occ. eigenvalues --  -24.84122 -19.28908 -19.24561 -14.45752 -10.40652
 Alpha  occ. eigenvalues --  -10.39361 -10.38955 -10.32892 -10.32468 -10.32010
 Alpha  occ. eigenvalues --  -10.31382 -10.31264 -10.30845 -10.30817 -10.26624
 Alpha  occ. eigenvalues --   -1.35357  -1.18740  -1.12468  -1.06227  -0.99144
 Alpha  occ. eigenvalues --   -0.90178  -0.87659  -0.86491  -0.82756  -0.79175
 Alpha  occ. eigenvalues --   -0.76527  -0.73887  -0.69700  -0.66948  -0.65332
 Alpha  occ. eigenvalues --   -0.62573  -0.60890  -0.60100  -0.58538  -0.58293
 Alpha  occ. eigenvalues --   -0.56079  -0.55713  -0.54956  -0.53228  -0.52979
 Alpha  occ. eigenvalues --   -0.51860  -0.50290  -0.49414  -0.49126  -0.48612
 Alpha  occ. eigenvalues --   -0.47823  -0.47060  -0.45399  -0.44720  -0.43573
 Alpha  occ. eigenvalues --   -0.40645  -0.36014  -0.35367  -0.32984  -0.25896
 Alpha virt. eigenvalues --   -0.02301   0.03910   0.04131   0.04869   0.05465
 Alpha virt. eigenvalues --    0.05716   0.06462   0.07010   0.07871   0.08026
 Alpha virt. eigenvalues --    0.08375   0.09028   0.09279   0.09508   0.10068
 Alpha virt. eigenvalues --    0.10396   0.11669   0.11844   0.12562   0.13497
 Alpha virt. eigenvalues --    0.14142   0.14301   0.15127   0.15720   0.16134
 Alpha virt. eigenvalues --    0.16353   0.16570   0.17022   0.17132   0.17351
 Alpha virt. eigenvalues --    0.17446   0.18386   0.18501   0.18619   0.18972
 Alpha virt. eigenvalues --    0.19336   0.19579   0.20046   0.20284   0.20730
 Alpha virt. eigenvalues --    0.21153   0.21346   0.21778   0.22232   0.22743
 Alpha virt. eigenvalues --    0.23305   0.23914   0.24190   0.24346   0.24710
 Alpha virt. eigenvalues --    0.25298   0.25636   0.26466   0.27405   0.27763
 Alpha virt. eigenvalues --    0.28240   0.28684   0.28859   0.29184   0.29588
 Alpha virt. eigenvalues --    0.30503   0.31041   0.31483   0.32121   0.32374
 Alpha virt. eigenvalues --    0.32407   0.33161   0.33931   0.34402   0.34900
 Alpha virt. eigenvalues --    0.35509   0.35747   0.36183   0.37255   0.37440
 Alpha virt. eigenvalues --    0.37669   0.38062   0.38584   0.38998   0.39341
 Alpha virt. eigenvalues --    0.39551   0.40757   0.41308   0.41875   0.42586
 Alpha virt. eigenvalues --    0.43113   0.43976   0.44358   0.45056   0.45978
 Alpha virt. eigenvalues --    0.46447   0.47518   0.48907   0.49692   0.50366
 Alpha virt. eigenvalues --    0.51033   0.51507   0.52045   0.53639   0.54495
 Alpha virt. eigenvalues --    0.54912   0.57653   0.58567   0.59029   0.60107
 Alpha virt. eigenvalues --    0.60484   0.63204   0.63887   0.64821   0.65453
 Alpha virt. eigenvalues --    0.66407   0.66864   0.67560   0.68552   0.68944
 Alpha virt. eigenvalues --    0.69120   0.70227   0.71001   0.71433   0.71969
 Alpha virt. eigenvalues --    0.72925   0.73535   0.74403   0.74916   0.75089
 Alpha virt. eigenvalues --    0.76862   0.77512   0.78194   0.78930   0.80292
 Alpha virt. eigenvalues --    0.80352   0.81381   0.82142   0.83046   0.84812
 Alpha virt. eigenvalues --    0.85891   0.87100   0.88177   0.89499   0.91579
 Alpha virt. eigenvalues --    0.92369   0.93343   0.95411   0.95927   0.97144
 Alpha virt. eigenvalues --    0.98139   0.98935   0.99010   1.00363   1.02393
 Alpha virt. eigenvalues --    1.03030   1.04773   1.05658   1.07359   1.07524
 Alpha virt. eigenvalues --    1.08754   1.09558   1.11013   1.12779   1.13861
 Alpha virt. eigenvalues --    1.14559   1.16347   1.17449   1.19935   1.21031
 Alpha virt. eigenvalues --    1.22569   1.23507   1.23867   1.25792   1.27333
 Alpha virt. eigenvalues --    1.28958   1.30191   1.32547   1.34461   1.36030
 Alpha virt. eigenvalues --    1.36916   1.39522   1.42121   1.45828   1.46942
 Alpha virt. eigenvalues --    1.48718   1.50234   1.50967   1.52069   1.53477
 Alpha virt. eigenvalues --    1.54104   1.55365   1.57626   1.57836   1.58445
 Alpha virt. eigenvalues --    1.60086   1.61338   1.61931   1.63209   1.64039
 Alpha virt. eigenvalues --    1.64294   1.65086   1.65351   1.67917   1.68300
 Alpha virt. eigenvalues --    1.69288   1.70933   1.72418   1.74092   1.75305
 Alpha virt. eigenvalues --    1.76018   1.78031   1.78498   1.80456   1.81670
 Alpha virt. eigenvalues --    1.82866   1.83873   1.85060   1.88154   1.89673
 Alpha virt. eigenvalues --    1.90555   1.91306   1.92881   1.95857   1.96961
 Alpha virt. eigenvalues --    1.97515   1.99860   2.01922   2.02312   2.03679
 Alpha virt. eigenvalues --    2.05436   2.06912   2.07151   2.07550   2.08456
 Alpha virt. eigenvalues --    2.11475   2.11954   2.13947   2.14614   2.16172
 Alpha virt. eigenvalues --    2.17257   2.20130   2.22878   2.23763   2.25794
 Alpha virt. eigenvalues --    2.26955   2.28554   2.29244   2.34085   2.36024
 Alpha virt. eigenvalues --    2.38177   2.40555   2.41798   2.44293   2.50883
 Alpha virt. eigenvalues --    2.51298   2.53363   2.55725   2.56769   2.58192
 Alpha virt. eigenvalues --    2.58971   2.61581   2.62973   2.64613   2.66926
 Alpha virt. eigenvalues --    2.67520   2.69649   2.71184   2.72912   2.73638
 Alpha virt. eigenvalues --    2.74483   2.76731   2.78590   2.79735   2.80722
 Alpha virt. eigenvalues --    2.81161   2.81632   2.83532   2.83978   2.85844
 Alpha virt. eigenvalues --    2.86560   2.88346   2.91624   2.92026   2.94735
 Alpha virt. eigenvalues --    2.95570   2.98479   3.01648   3.03161   3.04561
 Alpha virt. eigenvalues --    3.08294   3.10624   3.13837   3.15310   3.16384
 Alpha virt. eigenvalues --    3.16833   3.18620   3.19455   3.21388   3.27016
 Alpha virt. eigenvalues --    3.27557   3.28845   3.31722   3.35027   3.37430
 Alpha virt. eigenvalues --    3.42037   3.46939   3.49768   3.56658   3.58292
 Alpha virt. eigenvalues --    3.64302   3.68480   3.70530   3.74886   3.75610
 Alpha virt. eigenvalues --    3.79540   3.84213   3.84988   3.85927   3.88547
 Alpha virt. eigenvalues --    3.90811   3.93734   3.96052   3.96672   4.01657
 Alpha virt. eigenvalues --    4.05423   4.12612   4.13198   4.17342   4.19816
 Alpha virt. eigenvalues --    4.25312   4.28455   4.35728   4.52075   4.91375
 Alpha virt. eigenvalues --    4.94773   4.99925   5.11399   5.18584   5.19084
 Alpha virt. eigenvalues --    5.42051   5.55892   5.81399   5.89437   6.42062
 Alpha virt. eigenvalues --    6.54663   6.84117  23.66603  23.94602  24.00654
 Alpha virt. eigenvalues --   24.01707  24.07448  24.08690  24.09067  24.14596
 Alpha virt. eigenvalues --   24.21819  24.26859  24.29625  35.72260  50.08904
 Alpha virt. eigenvalues --   50.12179  66.92711
          Condensed to atoms (all electrons):
               1          2          3          4          5          6
     1  C    5.174396   0.390929   0.392462  -0.065894   0.008941   0.226038
     2  H    0.390929   0.480805  -0.026443   0.007603  -0.006023  -0.052403
     3  H    0.392462  -0.026443   0.539728  -0.008197   0.001515  -0.062948
     4  C   -0.065894   0.007603  -0.008197   5.168217   0.403726   0.240271
     5  H    0.008941  -0.006023   0.001515   0.403726   0.569958  -0.058168
     6  N    0.226038  -0.052403  -0.062948   0.240271  -0.058168   6.885636
     7  H    0.430060  -0.012388  -0.047275   0.007239   0.000942  -0.044776
     8  H   -0.004398   0.003637  -0.002078   0.393347  -0.033166  -0.095563
     9  H   -0.005684  -0.003465   0.002565   0.433358  -0.065091  -0.054922
    10  C   -0.310666   0.030843   0.002856  -0.052584  -0.037604   0.300629
    11  H    0.010468  -0.000327   0.000042  -0.023915   0.007749  -0.059503
    12  C    0.323813   0.012035  -0.001416  -0.172940   0.014838  -0.345327
    13  C   -0.047688  -0.012269   0.023444  -0.025227   0.010280  -0.005988
    14  H    0.025169  -0.000538  -0.003347  -0.011061   0.002973  -0.035415
    15  O   -0.002974  -0.000266  -0.000351  -0.001913  -0.000046  -0.000984
    16  C   -0.128812  -0.008078   0.014310   0.024520   0.004333  -0.043670
    17  C   -0.004045  -0.000091  -0.000617   0.003437   0.000902  -0.014153
    18  C    0.020925  -0.000858  -0.004090   0.018117  -0.001089   0.044873
    19  O   -0.000081  -0.000007   0.000042  -0.000195   0.000002  -0.000263
    20  C    0.002602   0.000084  -0.001251   0.000559   0.000106  -0.003520
    21  C    0.008344   0.000636   0.001471  -0.001024  -0.000611   0.023885
    22  H    0.003303   0.000318  -0.004396   0.001363  -0.000547   0.005107
    23  H   -0.000890  -0.000093   0.000031   0.000230  -0.000012   0.000680
    24  H   -0.000022  -0.000001  -0.000007  -0.000013   0.000000   0.000014
    25  C    0.000822   0.000045  -0.000031   0.000491  -0.000007  -0.000153
    26  H   -0.000627  -0.000049   0.000250  -0.000018   0.000013  -0.000008
    27  F    0.000003   0.000000  -0.000001  -0.000001   0.000000   0.000000
               7          8          9         10         11         12
     1  C    0.430060  -0.004398  -0.005684  -0.310666   0.010468   0.323813
     2  H   -0.012388   0.003637  -0.003465   0.030843  -0.000327   0.012035
     3  H   -0.047275  -0.002078   0.002565   0.002856   0.000042  -0.001416
     4  C    0.007239   0.393347   0.433358  -0.052584  -0.023915  -0.172940
     5  H    0.000942  -0.033166  -0.065091  -0.037604   0.007749   0.014838
     6  N   -0.044776  -0.095563  -0.054922   0.300629  -0.059503  -0.345327
     7  H    0.521225  -0.001172  -0.000813   0.003665  -0.003193   0.020202
     8  H   -0.001172   0.542222  -0.019916   0.092757  -0.009813  -0.011486
     9  H   -0.000813  -0.019916   0.555702  -0.003100  -0.001764  -0.009380
    10  C    0.003665   0.092757  -0.003100   8.304917   0.230691  -1.883839
    11  H   -0.003193  -0.009813  -0.001764   0.230691   0.504037   0.182620
    12  C    0.020202  -0.011486  -0.009380  -1.883839   0.182620  15.301595
    13  C   -0.052921  -0.001806  -0.006381  -0.903245   0.015348   2.370543
    14  H   -0.006928  -0.002466  -0.001921  -0.236232   0.020145   0.701807
    15  O   -0.000522   0.001566   0.000100  -0.017190  -0.006336  -0.660064
    16  C   -0.008412   0.000091   0.001302   0.825614  -0.002813  -5.733210
    17  C   -0.001761  -0.000110  -0.000089   0.003696   0.023553  -1.376526
    18  C    0.007493   0.000163  -0.000611   0.277078  -0.055221  -2.102339
    19  O   -0.000105   0.000061  -0.000004  -0.008256  -0.001249  -0.024293
    20  C   -0.000222  -0.000207  -0.000017  -0.097181   0.004976  -0.701949
    21  C    0.000417   0.001051  -0.000339   0.101885  -0.019828   0.627883
    22  H    0.001059   0.000261   0.000121  -0.016564  -0.002551  -0.041084
    23  H    0.000252   0.000051   0.000033   0.008559  -0.001934  -0.018178
    24  H    0.000001   0.000008  -0.000001  -0.000752  -0.000125  -0.002990
    25  C   -0.000028  -0.000159   0.000009   0.013972   0.002162  -0.147276
    26  H    0.000024   0.000033  -0.000002   0.006051  -0.000192  -0.011948
    27  F   -0.000001   0.000000   0.000000  -0.000254   0.000009   0.000813
              13         14         15         16         17         18
     1  C   -0.047688   0.025169  -0.002974  -0.128812  -0.004045   0.020925
     2  H   -0.012269  -0.000538  -0.000266  -0.008078  -0.000091  -0.000858
     3  H    0.023444  -0.003347  -0.000351   0.014310  -0.000617  -0.004090
     4  C   -0.025227  -0.011061  -0.001913   0.024520   0.003437   0.018117
     5  H    0.010280   0.002973  -0.000046   0.004333   0.000902  -0.001089
     6  N   -0.005988  -0.035415  -0.000984  -0.043670  -0.014153   0.044873
     7  H   -0.052921  -0.006928  -0.000522  -0.008412  -0.001761   0.007493
     8  H   -0.001806  -0.002466   0.001566   0.000091  -0.000110   0.000163
     9  H   -0.006381  -0.001921   0.000100   0.001302  -0.000089  -0.000611
    10  C   -0.903245  -0.236232  -0.017190   0.825614   0.003696   0.277078
    11  H    0.015348   0.020145  -0.006336  -0.002813   0.023553  -0.055221
    12  C    2.370543   0.701807  -0.660064  -5.733210  -1.376526  -2.102339
    13  C   14.244889   0.015439   0.770029  -2.445973  -1.308050  -3.658652
    14  H    0.015439   0.510931   0.006248  -0.058494   0.021121  -0.149089
    15  O    0.770029   0.006248   8.168910   0.050376   0.152587  -0.129848
    16  C   -2.445973  -0.058494   0.050376  15.828811   0.752000  -1.133152
    17  C   -1.308050   0.021121   0.152587   0.752000  15.840724  -5.297186
    18  C   -3.658652  -0.149089  -0.129848  -1.133152  -5.297186  16.385864
    19  O   -0.087135  -0.000073  -0.030906   0.108732   0.308574   0.045273
    20  C   -3.403719   0.002353  -0.065412  -1.818471  -2.797594   3.773853
    21  C    1.322775  -0.025980  -0.009763  -0.858920   1.121149  -2.578462
    22  H   -0.080419  -0.006673  -0.001671  -0.183179  -0.053379   0.670700
    23  H    0.000381  -0.001961   0.091535  -0.156390   0.098720  -0.003439
    24  H   -0.018346  -0.000170  -0.000067  -0.067065  -0.096362   0.056741
    25  C   -0.860150  -0.001502  -0.001756  -0.227781  -1.306629   0.550197
    26  H    0.010027  -0.000514   0.000409   0.093145   0.079456  -0.108627
    27  F   -0.000523   0.000028  -0.000018   0.012919  -0.069557  -0.058878
              19         20         21         22         23         24
     1  C   -0.000081   0.002602   0.008344   0.003303  -0.000890  -0.000022
     2  H   -0.000007   0.000084   0.000636   0.000318  -0.000093  -0.000001
     3  H    0.000042  -0.001251   0.001471  -0.004396   0.000031  -0.000007
     4  C   -0.000195   0.000559  -0.001024   0.001363   0.000230  -0.000013
     5  H    0.000002   0.000106  -0.000611  -0.000547  -0.000012   0.000000
     6  N   -0.000263  -0.003520   0.023885   0.005107   0.000680   0.000014
     7  H   -0.000105  -0.000222   0.000417   0.001059   0.000252   0.000001
     8  H    0.000061  -0.000207   0.001051   0.000261   0.000051   0.000008
     9  H   -0.000004  -0.000017  -0.000339   0.000121   0.000033  -0.000001
    10  C   -0.008256  -0.097181   0.101885  -0.016564   0.008559  -0.000752
    11  H   -0.001249   0.004976  -0.019828  -0.002551  -0.001934  -0.000125
    12  C   -0.024293  -0.701949   0.627883  -0.041084  -0.018178  -0.002990
    13  C   -0.087135  -3.403719   1.322775  -0.080419   0.000381  -0.018346
    14  H   -0.000073   0.002353  -0.025980  -0.006673  -0.001961  -0.000170
    15  O   -0.030906  -0.065412  -0.009763  -0.001671   0.091535  -0.000067
    16  C    0.108732  -1.818471  -0.858920  -0.183179  -0.156390  -0.067065
    17  C    0.308574  -2.797594   1.121149  -0.053379   0.098720  -0.096362
    18  C    0.045273   3.773853  -2.578462   0.670700  -0.003439   0.056741
    19  O    8.074026  -0.361652   0.014375  -0.000507   0.240463  -0.020672
    20  C   -0.361652  14.685035  -4.080418   0.183984   0.046317   0.706763
    21  C    0.014375  -4.080418  10.872975  -0.186578   0.012726  -0.102970
    22  H   -0.000507   0.183984  -0.186578   0.448217  -0.000471   0.003379
    23  H    0.240463   0.046317   0.012726  -0.000471   0.360430   0.001970
    24  H   -0.020672   0.706763  -0.102970   0.003379   0.001970   0.432221
    25  C    0.015028   0.433163  -0.284767   0.033770  -0.006847  -0.154156
    26  H    0.000195  -0.151561   0.583460  -0.018445   0.000626  -0.002367
    27  F   -0.000597  -0.214323  -0.194489   0.001703  -0.000075  -0.019730
              25         26         27
     1  C    0.000822  -0.000627   0.000003
     2  H    0.000045  -0.000049   0.000000
     3  H   -0.000031   0.000250  -0.000001
     4  C    0.000491  -0.000018  -0.000001
     5  H   -0.000007   0.000013   0.000000
     6  N   -0.000153  -0.000008   0.000000
     7  H   -0.000028   0.000024  -0.000001
     8  H   -0.000159   0.000033   0.000000
     9  H    0.000009  -0.000002   0.000000
    10  C    0.013972   0.006051  -0.000254
    11  H    0.002162  -0.000192   0.000009
    12  C   -0.147276  -0.011948   0.000813
    13  C   -0.860150   0.010027  -0.000523
    14  H   -0.001502  -0.000514   0.000028
    15  O   -0.001756   0.000409  -0.000018
    16  C   -0.227781   0.093145   0.012919
    17  C   -1.306629   0.079456  -0.069557
    18  C    0.550197  -0.108627  -0.058878
    19  O    0.015028   0.000195  -0.000597
    20  C    0.433163  -0.151561  -0.214323
    21  C   -0.284767   0.583460  -0.194489
    22  H    0.033770  -0.018445   0.001703
    23  H   -0.006847   0.000626  -0.000075
    24  H   -0.154156  -0.002367  -0.019730
    25  C    7.978274  -0.173086   0.595423
    26  H   -0.173086   0.434182  -0.023762
    27  F    0.595423  -0.023762   9.132905
 Mulliken charges:
               1
     1  C   -0.446493
     2  H    0.196366
     3  H    0.183733
     4  C   -0.339496
     5  H    0.176084
     6  N    0.150630
     7  H    0.187936
     8  H    0.147092
     9  H    0.180313
    10  C   -0.635745
    11  H    0.186964
    12  C   -0.311903
    13  C    0.135337
    14  H    0.236150
    15  O   -0.311672
    16  C    1.158269
    17  C   -0.079771
    18  C   -0.569736
    19  O   -0.270776
    20  C   -0.142297
    21  C   -0.348882
    22  H    0.243177
    23  H    0.327285
    24  H    0.284719
    25  C   -0.459029
    26  H    0.283337
    27  F   -0.161594
 Sum of Mulliken charges =   0.00000
 Mulliken charges with hydrogens summed into heavy atoms:
               1
     1  C    0.121542
     4  C    0.163993
     6  N    0.150630
    10  C   -0.448781
    12  C   -0.075753
    13  C    0.135337
    15  O   -0.311672
    16  C    1.158269
    17  C   -0.079771
    18  C   -0.326559
    19  O    0.056509
    20  C    0.142422
    21  C   -0.065544
    25  C   -0.459029
    27  F   -0.161594
 Electronic spatial extent (au):  <R**2>=           4561.6549
 Charge=              0.0000 electrons
 Dipole moment (field-independent basis, Debye):
    X=              4.4098    Y=             -4.7935    Z=              0.2739  Tot=              6.5191
 Quadrupole moment (field-independent basis, Debye-Ang):
   XX=            -73.9849   YY=            -95.5553   ZZ=            -84.6706
   XY=             -6.4240   XZ=              2.2744   YZ=              0.8934
 Traceless Quadrupole moment (field-independent basis, Debye-Ang):
   XX=             10.7520   YY=            -10.8184   ZZ=              0.0663
   XY=             -6.4240   XZ=              2.2744   YZ=              0.8934
 Octapole moment (field-independent basis, Debye-Ang**2):
  XXX=            123.2508  YYY=            -36.3730  ZZZ=              6.3708  XYY=             -5.5068
  XXY=             -9.3983  XXZ=              5.6573  XZZ=             11.9152  YZZ=             -0.0327
  YYZ=             -1.9123  XYZ=             -2.6651
 Hexadecapole moment (field-independent basis, Debye-Ang**3):
 XXXX=          -4262.6754 YYYY=           -897.6825 ZZZZ=           -301.8440 XXXY=           -175.0393
 XXXZ=              7.1079 YYYX=             50.1979 YYYZ=              8.4852 ZZZX=              2.1382
 ZZZY=             -6.1614 XXYY=           -962.4560 XXZZ=           -780.3434 YYZZ=           -203.9853
 XXYZ=              3.1118 YYXZ=             11.0507 ZZXY=              4.5853
 N-N= 9.399883320827D+02 E-N=-3.590605842744D+03  KE= 7.284991293855D+02
 D1PCM: PCM CHGder 1st derivatives, ID1Alg=3 FixD1E=F DoIter=F DoCFld=F I1PDM=6.
 Calling FoFJK, ICntrl=  10005127 FMM=F ISym2X=0 I1Cent= 0 IOpClX= 0 NMat=1 NMatS=1 NMatT=0.
 ***** Axes restored to original set *****
 -------------------------------------------------------------------
 Center     Atomic                   Forces (Hartrees/Bohr)
 Number     Number              X              Y              Z
 -------------------------------------------------------------------
      1        6           0.001844467    0.001753922    0.002727522
      2        1          -0.000823944   -0.000279980   -0.000045173
      3        1           0.000009886   -0.000701956   -0.000875687
      4        6           0.000787566   -0.000985010   -0.003791269
      5        1          -0.000367519   -0.000476379    0.001485554
      6        7          -0.011949896   -0.003633827    0.002844531
      7        1           0.000074061    0.000061895   -0.000633633
      8        1          -0.000031366    0.000160538    0.000301677
      9        1          -0.000733563    0.000518211    0.001019188
     10        6           0.012336748    0.003338646   -0.008441703
     11        1           0.000639813    0.000564192   -0.000769317
     12        6          -0.005558472    0.003909769    0.004797777
     13        6           0.015085267    0.004646253   -0.000754628
     14        1          -0.000219240    0.000547003   -0.000103434
     15        8          -0.007101868   -0.009964390    0.002622783
     16        6          -0.005787494   -0.000439314   -0.000059821
     17        6           0.000652557    0.006380611   -0.001382809
     18        6           0.002134449   -0.001573677    0.000478698
     19        8          -0.002065235   -0.004591960    0.001004219
     20        6          -0.000773941   -0.001010465    0.000246941
     21        6          -0.003191721   -0.000268850    0.000078259
     22        1           0.000492917   -0.000361566   -0.000096061
     23        1           0.003543138    0.000981478   -0.000292094
     24        1          -0.000628534   -0.000145974   -0.000027798
     25        6           0.005111203    0.000291810    0.000076337
     26        1           0.000372867    0.000279657   -0.000100045
     27        9          -0.003852149    0.000999366   -0.000310015
 -------------------------------------------------------------------
 Cartesian Forces:  Max     0.015085267 RMS     0.003671443

 GradGradGradGradGradGradGradGradGradGradGradGradGradGradGradGradGradGrad
 Berny optimization.
 FormGI is forming the generalized inverse of G from B-inverse, IUseBI=4.
 Internal  Forces:  Max     0.014661897 RMS     0.002402879
 Search for a local minimum.
 Step number   1 out of a maximum of  134
 All quantities printed in internal units (Hartrees-Bohrs-Radians)
 Mixed Optimization -- RFO/linear search
 Second derivative matrix not updated -- first step.
 ITU=  0
     Eigenvalues ---    0.00943   0.00975   0.01265   0.01406   0.01661
     Eigenvalues ---    0.01845   0.01876   0.01895   0.01927   0.02068
     Eigenvalues ---    0.02104   0.02195   0.02263   0.02277   0.02287
     Eigenvalues ---    0.02295   0.02311   0.02358   0.02446   0.02635
     Eigenvalues ---    0.07442   0.07546   0.07574   0.07655   0.15754
     Eigenvalues ---    0.16000   0.16000   0.16000   0.16000   0.16000
     Eigenvalues ---    0.16000   0.16000   0.16000   0.16000   0.16000
     Eigenvalues ---    0.16000   0.22000   0.22058   0.22372   0.23502
     Eigenvalues ---    0.24599   0.24958   0.24977   0.24986   0.24997
     Eigenvalues ---    0.25000   0.25000   0.25000   0.34453   0.34481
     Eigenvalues ---    0.34521   0.34639   0.34890   0.34982   0.34990
     Eigenvalues ---    0.35440   0.35474   0.35708   0.35710   0.36678
     Eigenvalues ---    0.37390   0.37698   0.39829   0.41791   0.43272
     Eigenvalues ---    0.45223   0.46685   0.47876   0.48034   0.48534
     Eigenvalues ---    0.52310   0.54273   0.55107   0.59814   0.66334
 RFO step:  Lambda=-2.35257903D-03 EMin= 9.42702646D-03
 Linear search not attempted -- first point.
 Iteration  1 RMS(Cart)=  0.05337372 RMS(Int)=  0.00064698
 Iteration  2 RMS(Cart)=  0.00126635 RMS(Int)=  0.00007045
 Iteration  3 RMS(Cart)=  0.00000025 RMS(Int)=  0.00007044
 Variable       Old X    -DE/DX   Delta X   Delta X   Delta X     New X
                                 (Linear)    (Quad)   (Total)
    R1        2.05704  -0.00080   0.00000  -0.00228  -0.00228   2.05476
    R2        2.06527  -0.00086   0.00000  -0.00247  -0.00247   2.06279
    R3        2.75263   0.00178   0.00000   0.00474   0.00474   2.75737
    R4        2.06265  -0.00053   0.00000  -0.00153  -0.00153   2.06112
    R5        2.06572  -0.00098   0.00000  -0.00283  -0.00283   2.06289
    R6        2.74807   0.00076   0.00000   0.00201   0.00201   2.75008
    R7        2.05691  -0.00025   0.00000  -0.00070  -0.00070   2.05621
    R8        2.06460  -0.00085   0.00000  -0.00244  -0.00244   2.06216
    R9        2.51088  -0.01205   0.00000  -0.02007  -0.02007   2.49081
   R10        2.04913   0.00010   0.00000   0.00028   0.00028   2.04940
   R11        2.62072   0.00622   0.00000   0.01293   0.01293   2.63365
   R12        2.76335  -0.00107   0.00000  -0.00290  -0.00290   2.76044
   R13        2.05854   0.00001   0.00000   0.00001   0.00001   2.05856
   R14        2.46254   0.00793   0.00000   0.01191   0.01191   2.47446
   R15        2.67335   0.00394   0.00000   0.00905   0.00905   2.68240
   R16        2.69694  -0.00277   0.00000  -0.00691  -0.00691   2.69003
   R17        2.66541  -0.00168   0.00000  -0.00401  -0.00401   2.66140
   R18        2.55037   0.00383   0.00000   0.00691   0.00691   2.55729
   R19        2.61385   0.00061   0.00000   0.00121   0.00121   2.61506
   R20        2.62386   0.00220   0.00000   0.00465   0.00465   2.62851
   R21        2.04967   0.00017   0.00000   0.00046   0.00046   2.05013
   R22        1.84303   0.00326   0.00000   0.00620   0.00620   1.84923
   R23        2.04538   0.00058   0.00000   0.00160   0.00160   2.04698
   R24        2.62172   0.00091   0.00000   0.00208   0.00208   2.62380
   R25        2.60928  -0.00064   0.00000  -0.00107  -0.00107   2.60821
   R26        2.04540   0.00023   0.00000   0.00063   0.00063   2.04603
   R27        2.55784   0.00397   0.00000   0.00729   0.00729   2.56513
    A1        1.90211   0.00043   0.00000   0.00163   0.00162   1.90373
    A2        1.89971  -0.00038   0.00000  -0.00284  -0.00285   1.89687
    A3        1.90021   0.00021   0.00000   0.00129   0.00129   1.90150
    A4        1.93261  -0.00086   0.00000  -0.00530  -0.00530   1.92731
    A5        1.90631   0.00066   0.00000   0.00506   0.00506   1.91137
    A6        1.92247  -0.00005   0.00000   0.00024   0.00024   1.92271
    A7        1.92188  -0.00165   0.00000  -0.01110  -0.01114   1.91074
    A8        1.90243   0.00083   0.00000   0.00612   0.00613   1.90856
    A9        1.90164   0.00091   0.00000   0.00273   0.00265   1.90429
   A10        1.91742   0.00038   0.00000   0.00382   0.00382   1.92124
   A11        1.91775  -0.00122   0.00000  -0.00806  -0.00809   1.90966
   A12        1.90246   0.00079   0.00000   0.00677   0.00677   1.90924
   A13        2.04750  -0.00011   0.00000  -0.00045  -0.00045   2.04705
   A14        2.11885   0.00079   0.00000   0.00309   0.00309   2.12194
   A15        2.11608  -0.00068   0.00000  -0.00271  -0.00271   2.11337
   A16        2.02212  -0.00003   0.00000  -0.00194  -0.00195   2.02016
   A17        2.20259  -0.00211   0.00000  -0.00949  -0.00951   2.19307
   A18        2.05844   0.00213   0.00000   0.01134   0.01132   2.06976
   A19        2.08233   0.00089   0.00000   0.00614   0.00574   2.08807
   A20        2.09591  -0.00032   0.00000   0.00235   0.00195   2.09786
   A21        2.08215  -0.00033   0.00000   0.00188   0.00148   2.08363
   A22        1.80118   0.01466   0.00000   0.05797   0.05794   1.85913
   A23        2.24116  -0.00558   0.00000  -0.02225  -0.02228   2.21889
   A24        2.23836  -0.00911   0.00000  -0.03638  -0.03638   2.20198
   A25        2.09305  -0.00080   0.00000  -0.00281  -0.00281   2.09024
   A26        2.13881   0.00029   0.00000   0.00151   0.00151   2.14032
   A27        2.05123   0.00050   0.00000   0.00133   0.00133   2.05256
   A28        2.11245  -0.00349   0.00000  -0.01364  -0.01364   2.09881
   A29        2.10534   0.00122   0.00000   0.00446   0.00446   2.10980
   A30        2.06539   0.00227   0.00000   0.00918   0.00918   2.07458
   A31        2.12748  -0.00041   0.00000  -0.00196  -0.00196   2.12551
   A32        2.07757  -0.00038   0.00000  -0.00261  -0.00261   2.07497
   A33        2.07813   0.00079   0.00000   0.00457   0.00457   2.08270
   A34        1.89220  -0.00315   0.00000  -0.01941  -0.01941   1.87279
   A35        2.09451   0.00090   0.00000   0.00432   0.00432   2.09883
   A36        2.07997  -0.00122   0.00000  -0.00501  -0.00500   2.07496
   A37        2.10870   0.00031   0.00000   0.00068   0.00068   2.10939
   A38        2.06321  -0.00019   0.00000  -0.00006  -0.00006   2.06315
   A39        2.12395  -0.00034   0.00000  -0.00262  -0.00262   2.12134
   A40        2.09601   0.00052   0.00000   0.00268   0.00268   2.09869
   A41        2.13909   0.00009   0.00000   0.00127   0.00127   2.14035
   A42        2.06496  -0.00052   0.00000  -0.00254  -0.00254   2.06242
   A43        2.07913   0.00044   0.00000   0.00128   0.00128   2.08041
    D1       -0.16654   0.00006   0.00000   0.00066   0.00065  -0.16589
    D2        3.01645   0.00011   0.00000   0.00249   0.00249   3.01894
    D3        1.92404  -0.00017   0.00000  -0.00236  -0.00235   1.92168
    D4       -1.17617  -0.00013   0.00000  -0.00052  -0.00052  -1.17668
    D5       -2.24866   0.00006   0.00000   0.00068   0.00068  -2.24798
    D6        0.93432   0.00011   0.00000   0.00251   0.00251   0.93684
    D7       -1.06699   0.00034   0.00000   0.00707   0.00703  -1.05996
    D8        2.03328   0.00033   0.00000   0.00538   0.00535   2.03862
    D9        3.12069   0.00010   0.00000   0.00407   0.00406   3.12476
   D10       -0.06222   0.00009   0.00000   0.00238   0.00238  -0.05984
   D11        1.02774  -0.00034   0.00000  -0.00163  -0.00160   1.02614
   D12       -2.15517  -0.00035   0.00000  -0.00332  -0.00328  -2.15845
   D13       -3.12176  -0.00043   0.00000  -0.01569  -0.01567  -3.13743
   D14        0.02951  -0.00011   0.00000  -0.00386  -0.00388   0.02563
   D15        0.06285  -0.00039   0.00000  -0.01384  -0.01382   0.04903
   D16       -3.06906  -0.00008   0.00000  -0.00201  -0.00203  -3.07110
   D17       -3.01747  -0.00087   0.00000  -0.03801  -0.03805  -3.05552
   D18       -0.10515   0.00023   0.00000   0.01355   0.01355  -0.09160
   D19        0.13398  -0.00054   0.00000  -0.02589  -0.02589   0.10809
   D20        3.04630   0.00056   0.00000   0.02567   0.02571   3.07201
   D21        1.46941   0.00123   0.00000   0.05572   0.05586   1.52527
   D22       -1.74367   0.00061   0.00000   0.04530   0.04518  -1.69849
   D23       -1.44474   0.00014   0.00000   0.00450   0.00462  -1.44011
   D24        1.62537  -0.00048   0.00000  -0.00591  -0.00606   1.61932
   D25       -3.11138  -0.00002   0.00000   0.00759   0.00748  -3.10389
   D26        0.04500  -0.00010   0.00000   0.00418   0.00407   0.04908
   D27       -0.05844   0.00015   0.00000  -0.00158  -0.00148  -0.05992
   D28        3.09794   0.00008   0.00000  -0.00499  -0.00488   3.09305
   D29        0.02181  -0.00014   0.00000  -0.00703  -0.00703   0.01477
   D30       -3.11638  -0.00014   0.00000  -0.00694  -0.00694  -3.12332
   D31       -3.13384  -0.00007   0.00000  -0.00379  -0.00379  -3.13763
   D32        0.01116  -0.00008   0.00000  -0.00369  -0.00370   0.00746
   D33        3.11676   0.00013   0.00000   0.00647   0.00647   3.12323
   D34       -0.02935   0.00016   0.00000   0.00763   0.00763  -0.02172
   D35       -0.01039   0.00007   0.00000   0.00317   0.00317  -0.00722
   D36        3.12669   0.00010   0.00000   0.00433   0.00433   3.13101
   D37        0.01588  -0.00019   0.00000  -0.00741  -0.00741   0.00847
   D38       -3.12904  -0.00019   0.00000  -0.00751  -0.00751  -3.13655
   D39        3.13916   0.00000   0.00000   0.00029   0.00029   3.13944
   D40       -0.00447   0.00004   0.00000   0.00185   0.00185  -0.00263
   D41        0.00088   0.00001   0.00000   0.00043   0.00043   0.00130
   D42        3.14044   0.00005   0.00000   0.00198   0.00198  -3.14077
   D43        0.00283  -0.00002   0.00000  -0.00073  -0.00073   0.00210
   D44        3.13868   0.00001   0.00000   0.00049   0.00049   3.13917
   D45       -3.13425  -0.00005   0.00000  -0.00187  -0.00188  -3.13612
   D46        0.00160  -0.00001   0.00000  -0.00065  -0.00065   0.00095
   D47       -0.00360   0.00002   0.00000   0.00074   0.00074  -0.00286
   D48       -3.14041  -0.00002   0.00000  -0.00070  -0.00070  -3.14111
   D49        3.13594   0.00005   0.00000   0.00232   0.00231   3.13825
   D50       -0.00087   0.00002   0.00000   0.00087   0.00087   0.00000
   D51        0.00446  -0.00003   0.00000  -0.00132  -0.00131   0.00314
   D52        3.14123   0.00000   0.00000   0.00013   0.00013   3.14136
   D53       -3.13149  -0.00006   0.00000  -0.00250  -0.00251  -3.13400
   D54        0.00528  -0.00003   0.00000  -0.00106  -0.00106   0.00422
         Item               Value     Threshold  Converged?
 Maximum Force            0.014662     0.000450     NO 
 RMS     Force            0.002403     0.000300     NO 
 Maximum Displacement     0.166090     0.001800     NO 
 RMS     Displacement     0.053610     0.001200     NO 
 Predicted change in Energy=-1.197067D-03
 GradGradGradGradGradGradGradGradGradGradGradGradGradGradGradGradGradGrad

                          Input orientation:                          
 ---------------------------------------------------------------------
 Center     Atomic      Atomic             Coordinates (Angstroms)
 Number     Number       Type             X           Y           Z
 ---------------------------------------------------------------------
      1          6           0        3.884809    1.187275    0.069791
      2          1           0        4.884768    1.426837   -0.283738
      3          1           0        3.387202    2.107039    0.382801
      4          6           0        3.757509    0.561890   -2.335746
      5          1           0        3.903006    1.593478   -2.661815
      6          7           0        3.144998    0.552049   -1.015679
      7          1           0        3.962866    0.507942    0.919517
      8          1           0        3.117667    0.045344   -3.048308
      9          1           0        4.726309    0.061745   -2.289851
     10          6           0        1.948480    0.033295   -0.824438
     11          1           0        1.486231   -0.418547   -1.695241
     12          6           0        1.240987    0.043720    0.376250
     13          6           0       -0.032570   -0.665513    0.470451
     14          1           0        1.704884    0.431881    1.282227
     15          8           0        0.252066   -1.899080    0.804954
     16          6           0       -1.333122   -0.112782    0.336550
     17          6           0       -2.475477   -0.945496    0.503801
     18          6           0       -1.553793    1.243347    0.027232
     19          8           0       -2.325523   -2.255953    0.806323
     20          6           0       -3.753621   -0.435740    0.357237
     21          6           0       -2.835997    1.761720   -0.121015
     22          1           0       -0.698117    1.898990   -0.094930
     23          1           0       -1.365109   -2.431027    0.873843
     24          1           0       -4.615720   -1.079059    0.484841
     25          6           0       -3.907986    0.908517    0.045869
     26          1           0       -3.001232    2.805478   -0.356679
     27          9           0       -5.168154    1.393261   -0.093956
 ---------------------------------------------------------------------
                    Distance matrix (angstroms):
                    1          2          3          4          5
     1  C    0.000000
     2  H    1.087332   0.000000
     3  H    1.091583   1.774726   0.000000
     4  C    2.488759   2.495913   3.148827   0.000000
     5  H    2.761703   2.578154   3.130413   1.091634   0.000000
     6  N    1.459135   2.080334   2.105327   1.455281   2.090195
     7  H    1.090698   1.772596   1.782292   3.262181   3.742715
     8  H    3.408086   3.560058   4.011950   1.088100   1.778442
     9  H    2.746425   2.431681   3.622086   1.091250   1.778312
    10  C    2.425012   3.294860   2.797813   2.415792   3.103273
    11  H    3.383367   4.116775   3.782926   2.555426   3.289880
    12  C    2.896796   3.952940   2.977174   3.735814   4.326424
    13  C    4.351920   5.396938   4.403358   4.872982   5.513882
    14  H    2.606279   3.681554   2.538762   4.161718   4.662244
    15  O    4.823160   5.805936   5.104535   5.311168   6.127464
    16  C    5.384061   6.435630   5.216436   5.788858   6.270451
    17  C    6.722374   7.773119   6.610871   7.013227   7.559932
    18  C    5.439058   6.448678   5.028501   5.853032   6.093458
    19  O    7.139084   8.169423   7.200715   7.403791   8.101894
    20  C    7.814244   8.860124   7.580087   8.041423   8.476812
    21  C    6.748009   7.729737   6.253101   7.058254   7.204036
    22  H    4.640785   5.605995   4.118415   5.163496   5.277554
    23  H    6.426526   7.435326   6.589356   6.745386   7.513359
    24  H    8.807243   9.855430   8.614429   8.986622   9.466393
    25  C    7.797815   8.814182   7.400658   8.034429   8.295319
    26  H    7.086467   8.005933   6.468905   7.391276   7.379099
    27  F    9.056786  10.054769   8.598307   9.240360   9.429736
                    6          7          8          9         10
     6  N    0.000000
     7  H    2.101390   0.000000
     8  H    2.095012   4.083135   0.000000
     9  H    2.089129   3.328962   1.778554   0.000000
    10  C    1.318080   2.706366   2.512517   3.140793   0.000000
    11  H    2.038472   3.718745   2.169693   3.329016   1.084497
    12  C    2.412701   2.814119   3.905065   4.388154   1.393667
    13  C    3.713217   4.188337   4.776084   5.549334   2.467717
    14  H    2.714542   2.288192   4.571531   4.693160   2.157834
[...]
 Alpha virt. eigenvalues --    0.05701   0.06438   0.07044   0.07863   0.08007
 Alpha virt. eigenvalues --    0.08293   0.08966   0.09200   0.09501   0.09898
 Alpha virt. eigenvalues --    0.10696   0.11556   0.11703   0.12842   0.13372
 Alpha virt. eigenvalues --    0.14024   0.14333   0.15108   0.15776   0.16099
 Alpha virt. eigenvalues --    0.16372   0.16533   0.16979   0.17160   0.17306
 Alpha virt. eigenvalues --    0.17430   0.18318   0.18406   0.18648   0.19046
 Alpha virt. eigenvalues --    0.19333   0.19485   0.19951   0.20361   0.20744
 Alpha virt. eigenvalues --    0.21169   0.21474   0.21996   0.22472   0.22757
 Alpha virt. eigenvalues --    0.23348   0.23805   0.24158   0.24709   0.24930
 Alpha virt. eigenvalues --    0.25291   0.25538   0.26445   0.27165   0.27970
 Alpha virt. eigenvalues --    0.28532   0.28693   0.29013   0.29098   0.29543
 Alpha virt. eigenvalues --    0.30525   0.30921   0.31745   0.31930   0.32146
 Alpha virt. eigenvalues --    0.32313   0.32773   0.33781   0.34522   0.34922
 Alpha virt. eigenvalues --    0.35726   0.35939   0.36445   0.37208   0.37337
 Alpha virt. eigenvalues --    0.37769   0.38226   0.38495   0.38897   0.39202
 Alpha virt. eigenvalues --    0.39602   0.40426   0.41574   0.42030   0.42792
 Alpha virt. eigenvalues --    0.43293   0.43578   0.44267   0.44843   0.46153
 Alpha virt. eigenvalues --    0.46506   0.47377   0.48719   0.49606   0.50184
 Alpha virt. eigenvalues --    0.51107   0.51769   0.52946   0.53595   0.54366
 Alpha virt. eigenvalues --    0.54505   0.57775   0.58363   0.59039   0.60300
 Alpha virt. eigenvalues --    0.60892   0.63367   0.64272   0.65061   0.65565
 Alpha virt. eigenvalues --    0.66529   0.66918   0.68197   0.68753   0.68844
 Alpha virt. eigenvalues --    0.69290   0.70111   0.70839   0.71862   0.71969
 Alpha virt. eigenvalues --    0.73012   0.73242   0.74062   0.74519   0.74912
 Alpha virt. eigenvalues --    0.76606   0.77678   0.78211   0.79088   0.79609
 Alpha virt. eigenvalues --    0.80182   0.81415   0.82183   0.82879   0.85094
 Alpha virt. eigenvalues --    0.85998   0.87414   0.87958   0.89690   0.91218
 Alpha virt. eigenvalues --    0.91696   0.93204   0.94683   0.95724   0.96757
 Alpha virt. eigenvalues --    0.98180   0.98434   0.99916   1.00809   1.02530
 Alpha virt. eigenvalues --    1.02889   1.05363   1.05997   1.07387   1.07922
 Alpha virt. eigenvalues --    1.09184   1.09314   1.11312   1.13185   1.14291
 Alpha virt. eigenvalues --    1.14508   1.15911   1.17874   1.19168   1.21282
 Alpha virt. eigenvalues --    1.21654   1.23014   1.23606   1.26078   1.27523
 Alpha virt. eigenvalues --    1.29323   1.30800   1.32614   1.35171   1.36403
 Alpha virt. eigenvalues --    1.38091   1.40360   1.41935   1.46191   1.47544
 Alpha virt. eigenvalues --    1.48809   1.50453   1.51531   1.52705   1.53377
 Alpha virt. eigenvalues --    1.53564   1.54379   1.57461   1.58023   1.58512
 Alpha virt. eigenvalues --    1.60339   1.61305   1.62003   1.62898   1.63844
 Alpha virt. eigenvalues --    1.64381   1.64708   1.65164   1.67623   1.68013
 Alpha virt. eigenvalues --    1.68448   1.71150   1.72395   1.73759   1.74978
 Alpha virt. eigenvalues --    1.75582   1.77282   1.78969   1.80948   1.81780
 Alpha virt. eigenvalues --    1.82901   1.83803   1.85085   1.88130   1.89140
 Alpha virt. eigenvalues --    1.90265   1.91517   1.91798   1.95840   1.96770
 Alpha virt. eigenvalues --    1.97594   2.00033   2.01631   2.02471   2.03432
 Alpha virt. eigenvalues --    2.04950   2.06365   2.06917   2.07747   2.08079
 Alpha virt. eigenvalues --    2.11620   2.12064   2.13292   2.14485   2.15785
 Alpha virt. eigenvalues --    2.16865   2.20458   2.23103   2.24126   2.25736
 Alpha virt. eigenvalues --    2.26971   2.27997   2.28296   2.32927   2.35668
 Alpha virt. eigenvalues --    2.37782   2.40664   2.42348   2.44196   2.50712
 Alpha virt. eigenvalues --    2.51900   2.52218   2.55917   2.56559   2.58320
 Alpha virt. eigenvalues --    2.59586   2.60590   2.62780   2.64397   2.66523
 Alpha virt. eigenvalues --    2.66896   2.69580   2.70705   2.72950   2.74342
 Alpha virt. eigenvalues --    2.74620   2.76044   2.78711   2.79505   2.80992
 Alpha virt. eigenvalues --    2.81274   2.82049   2.83587   2.83724   2.86710
 Alpha virt. eigenvalues --    2.86907   2.88111   2.90652   2.91582   2.94195
 Alpha virt. eigenvalues --    2.95595   2.98464   3.02099   3.02682   3.04205
 Alpha virt. eigenvalues --    3.09489   3.11567   3.15931   3.16430   3.17075
 Alpha virt. eigenvalues --    3.17639   3.19118   3.19309   3.21664   3.26668
 Alpha virt. eigenvalues --    3.27416   3.30283   3.31698   3.34915   3.36143
 Alpha virt. eigenvalues --    3.42445   3.46519   3.49816   3.55978   3.58564
 Alpha virt. eigenvalues --    3.64730   3.68276   3.70500   3.75003   3.75700
 Alpha virt. eigenvalues --    3.79389   3.83610   3.84711   3.86148   3.88845
 Alpha virt. eigenvalues --    3.90717   3.93694   3.96149   3.96394   4.01012
 Alpha virt. eigenvalues --    4.05025   4.12729   4.13355   4.17371   4.19337
 Alpha virt. eigenvalues --    4.25533   4.28918   4.35907   4.51346   4.91335
 Alpha virt. eigenvalues --    4.94384   4.98509   5.11808   5.18163   5.18756
 Alpha virt. eigenvalues --    5.38466   5.57275   5.81363   5.88649   6.42343
 Alpha virt. eigenvalues --    6.54845   6.83448  23.66937  23.94839  24.01302
 Alpha virt. eigenvalues --   24.02548  24.06329  24.07831  24.08984  24.14547
 Alpha virt. eigenvalues --   24.21442  24.24041  24.29518  35.72872  50.08630
 Alpha virt. eigenvalues --   50.12837  66.92824
          Condensed to atoms (all electrons):
               1          2          3          4          5          6
     1  C    5.173421   0.390706   0.382207  -0.063354  -0.001922   0.233554
     2  H    0.390706   0.476186  -0.025545   0.006421  -0.005461  -0.051160
     3  H    0.382207  -0.025545   0.541367  -0.009849   0.000412  -0.064931
     4  C   -0.063354   0.006421  -0.009849   5.175692   0.405991   0.245855
     5  H   -0.001922  -0.005461   0.000412   0.405991   0.560867  -0.056506
     6  N    0.233554  -0.051160  -0.064931   0.245855  -0.056506   6.893599
     7  H    0.435325  -0.013658  -0.045842   0.010344   0.001277  -0.038512
     8  H   -0.001643   0.004008  -0.002641   0.392539  -0.029577  -0.096287
     9  H    0.003875  -0.005126   0.002487   0.431730  -0.064995  -0.053268
    10  C   -0.276269   0.031751   0.014569  -0.058406  -0.024087   0.284257
    11  H    0.005491  -0.000301   0.001260  -0.026142   0.007514  -0.068060
    12  C    0.238577   0.000992   0.010997  -0.155225   0.013224  -0.326167
    13  C   -0.042329  -0.006918   0.018863  -0.043731   0.007626  -0.020336
    14  H    0.013134  -0.001146  -0.003160  -0.010993   0.002855  -0.040071
    15  O   -0.001562   0.000047  -0.000741  -0.002758  -0.000054  -0.004521
    16  C   -0.114441  -0.004272   0.007670   0.009972   0.004511  -0.085459
    17  C    0.005390   0.001060  -0.001254   0.000080   0.000604  -0.018554
    18  C    0.028392  -0.000989  -0.002484   0.020010  -0.000715   0.053748
    19  O   -0.000086  -0.000006   0.000007  -0.000197   0.000004  -0.000251
    20  C    0.004027   0.000303  -0.002290  -0.000433   0.000072  -0.006296
    21  C    0.011872   0.000577   0.002805   0.004794  -0.000607   0.036714
    22  H    0.007169   0.000749  -0.007359   0.000635  -0.000645   0.009747
    23  H   -0.000887  -0.000086   0.000073   0.000162  -0.000006   0.000719
    24  H    0.000012   0.000001  -0.000016  -0.000008   0.000000   0.000024
    25  C    0.001807   0.000134  -0.000076  -0.000053   0.000001   0.000117
    26  H   -0.000878  -0.000085   0.000453   0.000098   0.000023  -0.000007
    27  F    0.000004   0.000000  -0.000004  -0.000002   0.000000  -0.000002
               7          8          9         10         11         12
     1  C    0.435325  -0.001643   0.003875  -0.276269   0.005491   0.238577
     2  H   -0.013658   0.004008  -0.005126   0.031751  -0.000301   0.000992
     3  H   -0.045842  -0.002641   0.002487   0.014569   0.001260   0.010997
     4  C    0.010344   0.392539   0.431730  -0.058406  -0.026142  -0.155225
     5  H    0.001277  -0.029577  -0.064995  -0.024087   0.007514   0.013224
     6  N   -0.038512  -0.096287  -0.053268   0.284257  -0.068060  -0.326167
     7  H    0.509276  -0.000894  -0.000397  -0.015759  -0.004384   0.001116
     8  H   -0.000894   0.538652  -0.021489   0.089856  -0.010573  -0.006245
     9  H   -0.000397  -0.021489   0.553906  -0.015511  -0.001792  -0.003682
    10  C   -0.015759   0.089856  -0.015511   8.040814   0.244417  -1.453732
    11  H   -0.004384  -0.010573  -0.001792   0.244417   0.498573   0.147876
    12  C    0.001116  -0.006245  -0.003682  -1.453732   0.147876  12.755809
    13  C   -0.027509  -0.001378  -0.006927  -0.793271   0.018303   2.157808
    14  H   -0.008369  -0.002069  -0.002050  -0.190582   0.019697   0.603829
    15  O    0.000332   0.000875  -0.000016  -0.075332  -0.003472  -0.428282
    16  C   -0.002481  -0.002504  -0.000294   0.618554   0.028416  -4.919717
    17  C   -0.001338  -0.000335  -0.000400  -0.055835   0.024379  -0.482864
    18  C    0.007049   0.000127  -0.000901   0.281133  -0.051812  -1.504712
    19  O   -0.000045   0.000051  -0.000001  -0.012735  -0.000889  -0.031680
    20  C    0.000384  -0.000328  -0.000075  -0.093288   0.010094  -0.580477
    21  C   -0.000634   0.001581  -0.000312   0.142147  -0.029737   0.221997
    22  H    0.001737   0.000433   0.000116  -0.032843  -0.003375   0.004866
    23  H    0.000173   0.000050   0.000018   0.009924  -0.002267  -0.010477
    24  H   -0.000001   0.000009  -0.000001  -0.000622  -0.000142  -0.001819
    25  C   -0.000107  -0.000186  -0.000023  -0.008763   0.002823   0.015317
    26  H   -0.000001   0.000033  -0.000002   0.007199  -0.000258  -0.017247
    27  F   -0.000001   0.000000   0.000000  -0.000239   0.000012   0.000697
              13         14         15         16         17         18
     1  C   -0.042329   0.013134  -0.001562  -0.114441   0.005390   0.028392
     2  H   -0.006918  -0.001146   0.000047  -0.004272   0.001060  -0.000989
     3  H    0.018863  -0.003160  -0.000741   0.007670  -0.001254  -0.002484
     4  C   -0.043731  -0.010993  -0.002758   0.009972   0.000080   0.020010
     5  H    0.007626   0.002855  -0.000054   0.004511   0.000604  -0.000715
     6  N   -0.020336  -0.040071  -0.004521  -0.085459  -0.018554   0.053748
     7  H   -0.027509  -0.008369   0.000332  -0.002481  -0.001338   0.007049
     8  H   -0.001378  -0.002069   0.000875  -0.002504  -0.000335   0.000127
     9  H   -0.006927  -0.002050  -0.000016  -0.000294  -0.000400  -0.000901
    10  C   -0.793271  -0.190582  -0.075332   0.618554  -0.055835   0.281133
    11  H    0.018303   0.019697  -0.003472   0.028416   0.024379  -0.051812
    12  C    2.157808   0.603829  -0.428282  -4.919717  -0.482864  -1.504712
    13  C   13.933920   0.026905   0.760541  -2.821388  -0.741288  -2.967281
    14  H    0.026905   0.491269   0.014289  -0.013303   0.027623  -0.141707
    15  O    0.760541   0.014289   8.104518  -0.023467   0.082717  -0.097934
    16  C   -2.821388  -0.013303  -0.023467  15.596818   0.194332  -0.537043
    17  C   -0.741288   0.027623   0.082717   0.194332  15.539395  -5.320211
    18  C   -2.967281  -0.141707  -0.097934  -0.537043  -5.320211  14.270553
    19  O   -0.115449   0.001656  -0.025128   0.100300   0.333947   0.033391
    20  C   -3.988801   0.004038  -0.053162  -1.359215  -3.664125   3.885454
    21  C    1.094825  -0.037224  -0.010600  -1.411927   1.351195  -1.768273
    22  H   -0.081447  -0.004869  -0.001308  -0.157910  -0.043878   0.593754
    23  H    0.006279  -0.002408   0.097650  -0.141838   0.070205  -0.002337
    24  H   -0.024339  -0.000166  -0.000218  -0.060375  -0.111279   0.060451
    25  C   -0.374177   0.001504  -0.002220  -0.160096  -1.100683  -0.173033
    26  H    0.005431  -0.000817   0.000359   0.083524   0.076734  -0.077430
    27  F   -0.000763   0.000049  -0.000015   0.010535  -0.061049  -0.068716
              19         20         21         22         23         24
     1  C   -0.000086   0.004027   0.011872   0.007169  -0.000887   0.000012
     2  H   -0.000006   0.000303   0.000577   0.000749  -0.000086   0.000001
     3  H    0.000007  -0.002290   0.002805  -0.007359   0.000073  -0.000016
     4  C   -0.000197  -0.000433   0.004794   0.000635   0.000162  -0.000008
     5  H    0.000004   0.000072  -0.000607  -0.000645  -0.000006   0.000000
     6  N   -0.000251  -0.006296   0.036714   0.009747   0.000719   0.000024
     7  H   -0.000045   0.000384  -0.000634   0.001737   0.000173  -0.000001
     8  H    0.000051  -0.000328   0.001581   0.000433   0.000050   0.000009
     9  H   -0.000001  -0.000075  -0.000312   0.000116   0.000018  -0.000001
    10  C   -0.012735  -0.093288   0.142147  -0.032843   0.009924  -0.000622
    11  H   -0.000889   0.010094  -0.029737  -0.003375  -0.002267  -0.000142
    12  C   -0.031680  -0.580477   0.221997   0.004866  -0.010477  -0.001819
    13  C   -0.115449  -3.988801   1.094825  -0.081447   0.006279  -0.024339
    14  H    0.001656   0.004038  -0.037224  -0.004869  -0.002408  -0.000166
    15  O   -0.025128  -0.053162  -0.010600  -0.001308   0.097650  -0.000218
    16  C    0.100300  -1.359215  -1.411927  -0.157910  -0.141838  -0.060375
    17  C    0.333947  -3.664125   1.351195  -0.043878   0.070205  -0.111279
    18  C    0.033391   3.885454  -1.768273   0.593754  -0.002337   0.060451
    19  O    8.098898  -0.327894   0.008767  -0.000867   0.240406  -0.019624
    20  C   -0.327894  15.643563  -4.090273   0.187372   0.034239   0.718547
    21  C    0.008767  -4.090273  10.702301  -0.160180   0.017711  -0.101979
    22  H   -0.000867   0.187372  -0.160180   0.451523  -0.000247   0.003766
    23  H    0.240406   0.034239   0.017711  -0.000247   0.347497   0.001656
    24  H   -0.019624   0.718547  -0.101979   0.003766   0.001656   0.434280
    25  C    0.018423   0.199620   0.032351   0.015406  -0.007260  -0.158624
    26  H    0.000202  -0.152288   0.566608  -0.017657   0.000687  -0.002430
    27  F   -0.000540  -0.209314  -0.193611   0.001861  -0.000062  -0.019482
              25         26         27
     1  C    0.001807  -0.000878   0.000004
     2  H    0.000134  -0.000085   0.000000
     3  H   -0.000076   0.000453  -0.000004
     4  C   -0.000053   0.000098  -0.000002
     5  H    0.000001   0.000023   0.000000
     6  N    0.000117  -0.000007  -0.000002
     7  H   -0.000107  -0.000001  -0.000001
     8  H   -0.000186   0.000033   0.000000
     9  H   -0.000023  -0.000002   0.000000
    10  C   -0.008763   0.007199  -0.000239
    11  H    0.002823  -0.000258   0.000012
    12  C    0.015317  -0.017247   0.000697
    13  C   -0.374177   0.005431  -0.000763
    14  H    0.001504  -0.000817   0.000049
    15  O   -0.002220   0.000359  -0.000015
    16  C   -0.160096   0.083524   0.010535
    17  C   -1.100683   0.076734  -0.061049
    18  C   -0.173033  -0.077430  -0.068716
    19  O    0.018423   0.000202  -0.000540
    20  C    0.199620  -0.152288  -0.209314
    21  C    0.032351   0.566608  -0.193611
    22  H    0.015406  -0.017657   0.001861
    23  H   -0.007260   0.000687  -0.000062
    24  H   -0.158624  -0.002430  -0.019482
    25  C    7.657247  -0.165662   0.595849
    26  H   -0.165662   0.434514  -0.023667
    27  F    0.595849  -0.023667   9.136989
 Mulliken charges:
               1
     1  C   -0.431591
     2  H    0.201817
     3  H    0.183021
     4  C   -0.333174
     5  H    0.179594
     6  N    0.172055
     7  H    0.192918
     8  H    0.147934
     9  H    0.185127
    10  C   -0.657346
    11  H    0.194348
    12  C   -0.250781
    13  C    0.026831
    14  H    0.252084
    15  O   -0.330539
    16  C    1.161097
    17  C   -0.104569
    18  C   -0.518482
    19  O   -0.300660
    20  C   -0.159454
    21  C   -0.390888
    22  H    0.233453
    23  H    0.340426
    24  H    0.282380
    25  C   -0.389634
    26  H    0.282565
    27  F   -0.168531
 Sum of Mulliken charges =   0.00000
 Mulliken charges with hydrogens summed into heavy atoms:
               1
     1  C    0.146165
     4  C    0.179480
     6  N    0.172055
    10  C   -0.462998
    12  C    0.001304
    13  C    0.026831
    15  O   -0.330539
    16  C    1.161097
    17  C   -0.104569
    18  C   -0.285030
    19  O    0.039767
    20  C    0.122927
    21  C   -0.108323
    25  C   -0.389634
    27  F   -0.168531
 Electronic spatial extent (au):  <R**2>=           4462.7337
 Charge=              0.0000 electrons
 Dipole moment (field-independent basis, Debye):
    X=              5.6258    Y=             -5.4454    Z=              0.2662  Tot=              7.8341
 Quadrupole moment (field-independent basis, Debye-Ang):
   XX=            -73.1563   YY=            -97.6151   ZZ=            -84.4295
   XY=             -7.7229   XZ=              2.2874   YZ=              0.9270
 Traceless Quadrupole moment (field-independent basis, Debye-Ang):
   XX=             11.9107   YY=            -12.5481   ZZ=              0.6375
   XY=             -7.7229   XZ=              2.2874   YZ=              0.9270
 Octapole moment (field-independent basis, Debye-Ang**2):
  XXX=            129.8336  YYY=            -44.3142  ZZZ=              6.6362  XYY=              1.5124
  XXY=            -13.6091  XXZ=              6.0094  XZZ=             13.2633  YZZ=             -0.8620
  YYZ=             -2.1333  XYZ=             -1.6952
 Hexadecapole moment (field-independent basis, Debye-Ang**3):
 XXXX=          -4045.0422 YYYY=           -986.6771 ZZZZ=           -299.9145 XXXY=           -193.2280
 XXXZ=              5.8003 YYYX=             38.5233 YYYZ=              9.3422 ZZZX=              3.5893
 ZZZY=             -5.3842 XXYY=           -950.4785 XXZZ=           -744.5050 YYZZ=           -214.4479
 XXYZ=              2.2934 YYXZ=             11.5995 ZZXY=              3.9819
 N-N= 9.420653167617D+02 E-N=-3.594715275851D+03  KE= 7.284359601599D+02
 1\1\GINC-DN117\FOpt\RwB97XD TD-FC\6-311++G(d,p)\C11H12F1N1O2\CA12053\2
 6-Dec-2016\0\\# wb97xd 6-311++g** opt td=(nstates=1,root=1) SCRF=(PCM,
 solvent=dichloromethane)\\title\\0,1\C,3.8194362062,1.2638112674,0.051
 9935943\H,4.7283572304,1.6894819532,-0.3650661594\H,3.2070552044,2.065
 1694851,0.4658704596\C,3.7147530266,0.5666669512,-2.3363237517\H,3.831
 8111773,1.5942105689,-2.6834247512\N,3.0948198724,0.5738448033,-1.0155
 004399\H,4.0836305088,0.5574838661,0.8397620162\H,3.0923893989,0.01313
 38538,-3.0354329447\H,4.6965485184,0.0963143984,-2.2677921908\C,1.9391
 448806,-0.010876904,-0.8031643385\H,1.4856335269,-0.4970686518,-1.6597
 599132\C,1.2491420101,-0.0308363299,0.4150566273\C,-0.0146225217,-0.74
 86658618,0.5183901471\H,1.7291004058,0.3669392137,1.309280496\O,0.2130
 036321,-1.9993917163,0.8294109304\C,-1.3036294307,-0.1531933327,0.3562
 565338\C,-2.4772288114,-0.949665067,0.4981861517\C,-1.4772728705,1.208
 1207045,0.0442167842\O,-2.3760009729,-2.2647046423,0.8024647308\C,-3.7
 349038616,-0.3995488284,0.3272894288\C,-2.7410608718,1.7697618858,-0.1
 280546667\H,-0.6033884087,1.8419704825,-0.0640958696\H,-1.4119641415,-
 2.462452411,0.8824887888\H,-4.6205723208,-1.0132290246,0.4360946728\C,
 -3.8386519939,0.9506742991,0.0163083702\H,-2.866572284,2.8183030284,-0
 .3667909487\F,-5.0835961094,1.4743550083,-0.1473747578\\Version=ES64L-
 G09RevD.01\State=1-A\HF=-731.3674019\RMSD=5.772e-09\RMSF=9.818e-06\Dip
 ole=6.411524,2.7336756,-2.1323119\PG=C01 [X(C11H12F1N1O2)]\\@


 THE MORE ACCURATE THE CALCULATIONS BECOME, THE MORE THE CONCEPTS
 TEND TO VANISH INTO THIN AIR.
     -- R.S. MULLIKEN, J.C.P. 43,S2(1965)
 Job cpu time:       2 days 16 hours 58 minutes 36.8 seconds.
 File lengths (MBytes):  RWF=    269 Int=      0 D2E=      0 Chk=     26 Scr=      1
 Normal termination of Gaussian 09 at Mon Dec 26 10:48:45 2016.
