 Entering Gaussian System, Link 0=g09
 Input=2_optS1_DCM.com
 Output=2_optS1_DCM.out
 Initial command:
 /share/apps/gaussian/g09_D01/g09/l1.exe "/tmp/3908520.1.smserial.q/Gau-34355.inp" -scrdir="/tmp/3908520.1.smserial.q/"
 Entering Link 1 = /share/apps/gaussian/g09_D01/g09/l1.exe PID=     34357.
  
 Copyright (c) 1988,1990,1992,1993,1995,1998,2003,2009,2013,
            Gaussian, Inc.  All Rights Reserved.
  
 This is part of the Gaussian(R) 09 program.  It is based on
 the Gaussian(R) 03 system (copyright 2003, Gaussian, Inc.),
 the Gaussian(R) 98 system (copyright 1998, Gaussian, Inc.),
 the Gaussian(R) 94 system (copyright 1995, Gaussian, Inc.),
 the Gaussian 92(TM) system (copyright 1992, Gaussian, Inc.),
 the Gaussian 90(TM) system (copyright 1990, Gaussian, Inc.),
 the Gaussian 88(TM) system (copyright 1988, Gaussian, Inc.),
 the Gaussian 86(TM) system (copyright 1986, Carnegie Mellon
 University), and the Gaussian 82(TM) system (copyright 1983,
 Carnegie Mellon University). Gaussian is a federally registered
 trademark of Gaussian, Inc.
  
 This software contains proprietary and confidential information,
 including trade secrets, belonging to Gaussian, Inc.
  
 This software is provided under written license and may be
 used, copied, transmitted, or stored only in accord with that
 written license.
  
 The following legend is applicable only to US Government
 contracts under FAR:
  
                    RESTRICTED RIGHTS LEGEND
  
 Use, reproduction and disclosure by the US Government is
 subject to restrictions as set forth in subparagraphs (a)
 and (c) of the Commercial Computer Software - Restricted
 Rights clause in FAR 52.227-19.
  
 Gaussian, Inc.
 340 Quinnipiac St., Bldg. 40, Wallingford CT 06492
  
  
 ---------------------------------------------------------------
 Warning -- This program may not be used in any manner that
 competes with the business of Gaussian, Inc. or will provide
 assistance to any competitor of Gaussian, Inc.  The licensee
 of this program is prohibited from giving any competitor of
 Gaussian, Inc. access to this program.  By using this program,
 the user acknowledges that Gaussian, Inc. is engaged in the
 business of creating and licensing software in the field of
 computational chemistry and represents and warrants to the
 licensee that it is not a competitor of Gaussian, Inc. and that
 it will not use this program in any manner prohibited above.
 ---------------------------------------------------------------
  

 Cite this work as:
 Gaussian 09, Revision D.01,
 M. J. Frisch, G. W. Trucks, H. B. Schlegel, G. E. Scuseria, 
 M. A. Robb, J. R. Cheeseman, G. Scalmani, V. Barone, B. Mennucci, 
 G. A. Petersson, H. Nakatsuji, M. Caricato, X. Li, H. P. Hratchian, 
 A. F. Izmaylov, J. Bloino, G. Zheng, J. L. Sonnenberg, M. Hada, 
 M. Ehara, K. Toyota, R. Fukuda, J. Hasegawa, M. Ishida, T. Nakajima, 
 Y. Honda, O. Kitao, H. Nakai, T. Vreven, J. A. Montgomery, Jr., 
 J. E. Peralta, F. Ogliaro, M. Bearpark, J. J. Heyd, E. Brothers, 
 K. N. Kudin, V. N. Staroverov, T. Keith, R. Kobayashi, J. Normand, 
 K. Raghavachari, A. Rendell, J. C. Burant, S. S. Iyengar, J. Tomasi, 
 M. Cossi, N. Rega, J. M. Millam, M. Klene, J. E. Knox, J. B. Cross, 
 V. Bakken, C. Adamo, J. Jaramillo, R. Gomperts, R. E. Stratmann, 
 O. Yazyev, A. J. Austin, R. Cammi, C. Pomelli, J. W. Ochterski, 
 R. L. Martin, K. Morokuma, V. G. Zakrzewski, G. A. Voth, 
 P. Salvador, J. J. Dannenberg, S. Dapprich, A. D. Daniels, 
 O. Farkas, J. B. Foresman, J. V. Ortiz, J. Cioslowski, 
 and D. J. Fox, Gaussian, Inc., Wallingford CT, 2013.
 
 ******************************************
 Gaussian 09:  ES64L-G09RevD.01 24-Apr-2013
                30-Jan-2017 
 ******************************************
 %chk=2_optS1_DCM.chk
 %mem=4GB
 %nproc=2
 Will use up to    2 processors via shared memory.
 ----------------------------------------------------------------------
 # wb97xd 6-311++g** opt td=(nstates=1,root=1) SCRF=(PCM,solvent=dichlo
 romethane)
 ----------------------------------------------------------------------
 1/14=-1,18=20,19=15,26=3,38=1/1,3;
 2/9=110,12=2,17=6,18=5,40=1/2;
 3/5=4,6=6,7=1111,11=9,16=1,25=1,30=1,70=2201,71=1,72=9,74=-58/1,2,8,3;
 4//1;
 5/5=2,38=5,53=9/2;
 8/6=1,10=2,107=1,108=1/1;
 9/8=1,15=2,41=1,42=1,70=2/14;
 10/5=4/2;
 6/7=2,8=2,9=2,10=2/1;
 7/12=6,13=5,14=1/1,2,3,16;
 1/14=-1,18=20,19=15,26=3/3(2);
 2/9=110/2;
 99//99;
 2/9=110/2;
 3/5=4,6=6,7=1111,11=9,16=1,25=1,30=1,70=2205,71=1,72=9,74=-58/1,2,8,3;
 4/5=5,16=3,69=1/1;
 5/5=2,38=5,53=9/2;
 8/6=1,10=2,107=1,108=1/1;
 9/8=1,15=2,41=1,42=1,49=4,70=2/14;
 10/5=4/2;
 7/12=6,13=5,14=1/1,2,3,16;
 1/14=-1,18=20,19=15,26=3/3(-8);
 2/9=110/2;
 6/7=2,8=2,9=2,10=2/1;
 99//99;
 -------
 restart
 -------
 Symbolic Z-matrix:
 Charge =  0 Multiplicity = 1
 C                     3.72739  -1.59191  -1.01551 
 H                     4.67103  -1.8956   -1.47079 
 H                     3.39591  -2.38969  -0.33254 
 C                     5.1779   -0.16545   0.34624 
 H                     5.28957  -0.86151   1.19095 
 N                     3.91135  -0.33141  -0.33688 
 H                     2.98646  -1.48703  -1.81091 
 H                     5.25772   0.85294   0.72948 
 H                     6.00037  -0.33274  -0.35309 
 C                     2.81584   0.30758   0.19325 
 H                     3.03936   1.2088    0.75051 
 C                     1.50241  -0.06803   0.02822 
 C                     0.42042   0.65794   0.50254 
 H                     1.2618   -0.98173  -0.50185 
 O                     0.63775   1.76847   1.27574 
 C                    -0.98253   0.22278   0.34024 
 C                    -1.76833   0.80347  -0.74186 
 C                    -1.57668  -0.68532   1.20439 
 O                    -1.28533   1.69158  -1.46511 
 C                    -3.12964   0.34045  -0.92027 
 C                    -2.88559  -1.10083   1.0195 
 H                    -0.99805  -1.09315   2.02413 
 H                     0.50967   2.36458   0.53546 
 H                    -3.71843   0.74259  -1.73419 
 C                    -3.63153  -0.57325  -0.05486 
 H                    -3.35076  -1.8269    1.67391 
 F                    -4.89256  -1.0127   -0.19516 
 

 GradGradGradGradGradGradGradGradGradGradGradGradGradGradGradGradGradGrad
 Berny optimization.
 Initialization pass.
                           ----------------------------
                           !    Initial Parameters    !
                           ! (Angstroms and Degrees)  !
 --------------------------                            --------------------------
 ! Name  Definition              Value          Derivative Info.                !
 --------------------------------------------------------------------------------
 ! R1    R(1,2)                  1.0909         estimate D2E/DX2                !
 ! R2    R(1,3)                  1.1013         estimate D2E/DX2                !
 ! R3    R(1,6)                  1.4433         estimate D2E/DX2                !
 ! R4    R(1,7)                  1.0921         estimate D2E/DX2                !
 ! R5    R(4,5)                  1.1002         estimate D2E/DX2                !
 ! R6    R(4,6)                  1.4486         estimate D2E/DX2                !
 ! R7    R(4,8)                  1.091          estimate D2E/DX2                !
 ! R8    R(4,9)                  1.0925         estimate D2E/DX2                !
 ! R9    R(6,10)                 1.3746         estimate D2E/DX2                !
 ! R10   R(10,11)                1.0829         estimate D2E/DX2                !
 ! R11   R(10,12)                1.376          estimate D2E/DX2                !
 ! R12   R(12,13)                1.3866         estimate D2E/DX2                !
 ! R13   R(12,14)                1.0834         estimate D2E/DX2                !
 ! R14   R(13,15)                1.3705         estimate D2E/DX2                !
 ! R15   R(13,16)                1.4778         estimate D2E/DX2                !
 ! R16   R(15,23)                0.959          estimate D2E/DX2                !
 ! R17   R(16,17)                1.4579         estimate D2E/DX2                !
 ! R18   R(16,18)                1.3872         estimate D2E/DX2                !
 ! R19   R(17,19)                1.243          estimate D2E/DX2                !
 ! R20   R(17,20)                1.4489         estimate D2E/DX2                !
 ! R21   R(18,21)                1.3857         estimate D2E/DX2                !
 ! R22   R(18,22)                1.0831         estimate D2E/DX2                !
 ! R23   R(20,24)                1.0821         estimate D2E/DX2                !
 ! R24   R(20,25)                1.3549         estimate D2E/DX2                !
 ! R25   R(21,25)                1.4103         estimate D2E/DX2                !
 ! R26   R(21,26)                1.0825         estimate D2E/DX2                !
 ! R27   R(25,27)                1.3428         estimate D2E/DX2                !
 ! A1    A(2,1,3)              108.5139         estimate D2E/DX2                !
 ! A2    A(2,1,6)              109.2148         estimate D2E/DX2                !
 ! A3    A(2,1,7)              108.0385         estimate D2E/DX2                !
 ! A4    A(3,1,6)              112.2981         estimate D2E/DX2                !
 ! A5    A(3,1,7)              108.4843         estimate D2E/DX2                !
 ! A6    A(6,1,7)              110.1849         estimate D2E/DX2                !
 ! A7    A(5,4,6)              112.2295         estimate D2E/DX2                !
 ! A8    A(5,4,8)              108.2654         estimate D2E/DX2                !
 ! A9    A(5,4,9)              108.5533         estimate D2E/DX2                !
 ! A10   A(6,4,8)              109.6669         estimate D2E/DX2                !
 ! A11   A(6,4,9)              109.8056         estimate D2E/DX2                !
 ! A12   A(8,4,9)              108.2227         estimate D2E/DX2                !
 ! A13   A(1,6,4)              115.672          estimate D2E/DX2                !
 ! A14   A(1,6,10)             119.0599         estimate D2E/DX2                !
 ! A15   A(4,6,10)             117.4973         estimate D2E/DX2                !
 ! A16   A(6,10,11)            114.8866         estimate D2E/DX2                !
 ! A17   A(6,10,12)            125.9858         estimate D2E/DX2                !
 ! A18   A(11,10,12)           119.0715         estimate D2E/DX2                !
 ! A19   A(10,12,13)           124.117          estimate D2E/DX2                !
 ! A20   A(10,12,14)           120.0585         estimate D2E/DX2                !
 ! A21   A(13,12,14)           115.8244         estimate D2E/DX2                !
 ! A22   A(12,13,15)           119.5693         estimate D2E/DX2                !
 ! A23   A(12,13,16)           123.3017         estimate D2E/DX2                !
 ! A24   A(15,13,16)           116.8136         estimate D2E/DX2                !
 ! A25   A(13,15,23)            92.6935         estimate D2E/DX2                !
 ! A26   A(13,16,17)           118.4182         estimate D2E/DX2                !
 ! A27   A(13,16,18)           122.0691         estimate D2E/DX2                !
 ! A28   A(17,16,18)           119.4867         estimate D2E/DX2                !
 ! A29   A(16,17,19)           120.4631         estimate D2E/DX2                !
 ! A30   A(16,17,20)           118.0668         estimate D2E/DX2                !
 ! A31   A(19,17,20)           121.4494         estimate D2E/DX2                !
 ! A32   A(16,18,21)           121.1813         estimate D2E/DX2                !
 ! A33   A(16,18,22)           119.2838         estimate D2E/DX2                !
 ! A34   A(21,18,22)           119.5195         estimate D2E/DX2                !
 ! A35   A(17,20,24)           119.0183         estimate D2E/DX2                !
 ! A36   A(17,20,25)           119.0052         estimate D2E/DX2                !
 ! A37   A(24,20,25)           121.9732         estimate D2E/DX2                !
 ! A38   A(18,21,25)           119.2807         estimate D2E/DX2                !
 ! A39   A(18,21,26)           121.7606         estimate D2E/DX2                !
 ! A40   A(25,21,26)           118.957          estimate D2E/DX2                !
 ! A41   A(20,25,21)           122.8832         estimate D2E/DX2                !
 ! A42   A(20,25,27)           120.1229         estimate D2E/DX2                !
 ! A43   A(21,25,27)           116.9934         estimate D2E/DX2                !
 ! D1    D(2,1,6,4)            -38.0484         estimate D2E/DX2                !
 ! D2    D(2,1,6,10)           173.3962         estimate D2E/DX2                !
 ! D3    D(3,1,6,4)             82.3741         estimate D2E/DX2                !
 ! D4    D(3,1,6,10)           -66.1812         estimate D2E/DX2                !
 ! D5    D(7,1,6,4)           -156.5714         estimate D2E/DX2                !
 ! D6    D(7,1,6,10)            54.8732         estimate D2E/DX2                !
 ! D7    D(5,4,6,1)            -65.7637         estimate D2E/DX2                !
 ! D8    D(5,4,6,10)            83.3006         estimate D2E/DX2                !
 ! D9    D(8,4,6,1)            173.8635         estimate D2E/DX2                !
 ! D10   D(8,4,6,10)           -37.0722         estimate D2E/DX2                !
 ! D11   D(9,4,6,1)             55.0688         estimate D2E/DX2                !
 ! D12   D(9,4,6,10)          -155.8669         estimate D2E/DX2                !
 ! D13   D(1,6,10,11)          175.6389         estimate D2E/DX2                !
 ! D14   D(1,6,10,12)           -7.126          estimate D2E/DX2                !
 ! D15   D(4,6,10,11)           27.6484         estimate D2E/DX2                !
 ! D16   D(4,6,10,12)         -155.1166         estimate D2E/DX2                !
 ! D17   D(6,10,12,13)        -175.2717         estimate D2E/DX2                !
 ! D18   D(6,10,12,14)           4.6313         estimate D2E/DX2                !
 ! D19   D(11,10,12,13)          1.8585         estimate D2E/DX2                !
 ! D20   D(11,10,12,14)       -178.2385         estimate D2E/DX2                !
 ! D21   D(10,12,13,15)         -5.3028         estimate D2E/DX2                !
 ! D22   D(10,12,13,16)       -178.6423         estimate D2E/DX2                !
 ! D23   D(14,12,13,15)        174.7905         estimate D2E/DX2                !
 ! D24   D(14,12,13,16)          1.4509         estimate D2E/DX2                !
 ! D25   D(12,13,15,23)         99.4335         estimate D2E/DX2                !
 ! D26   D(16,13,15,23)        -86.8021         estimate D2E/DX2                !
 ! D27   D(12,13,16,17)        -98.9152         estimate D2E/DX2                !
 ! D28   D(12,13,16,18)         82.9487         estimate D2E/DX2                !
 ! D29   D(15,13,16,17)         87.5749         estimate D2E/DX2                !
 ! D30   D(15,13,16,18)        -90.5611         estimate D2E/DX2                !
 ! D31   D(13,16,17,19)         -3.5446         estimate D2E/DX2                !
 ! D32   D(13,16,17,20)        178.0861         estimate D2E/DX2                !
 ! D33   D(18,16,17,19)        174.6409         estimate D2E/DX2                !
 ! D34   D(18,16,17,20)         -3.7284         estimate D2E/DX2                !
 ! D35   D(13,16,18,21)       -178.7075         estimate D2E/DX2                !
 ! D36   D(13,16,18,22)         -0.1469         estimate D2E/DX2                !
 ! D37   D(17,16,18,21)          3.1758         estimate D2E/DX2                !
 ! D38   D(17,16,18,22)       -178.2636         estimate D2E/DX2                !
 ! D39   D(16,17,20,24)       -178.4553         estimate D2E/DX2                !
 ! D40   D(16,17,20,25)          2.1942         estimate D2E/DX2                !
 ! D41   D(19,17,20,24)          3.1924         estimate D2E/DX2                !
 ! D42   D(19,17,20,25)       -176.1581         estimate D2E/DX2                !
 ! D43   D(16,18,21,25)         -1.0196         estimate D2E/DX2                !
 ! D44   D(16,18,21,26)        178.5007         estimate D2E/DX2                !
 ! D45   D(22,18,21,25)       -179.5769         estimate D2E/DX2                !
 ! D46   D(22,18,21,26)         -0.0566         estimate D2E/DX2                !
 ! D47   D(17,20,25,21)         -0.0732         estimate D2E/DX2                !
 ! D48   D(17,20,25,27)        179.6583         estimate D2E/DX2                !
 ! D49   D(24,20,25,21)       -179.4036         estimate D2E/DX2                !
 ! D50   D(24,20,25,27)          0.3278         estimate D2E/DX2                !
 ! D51   D(18,21,25,20)         -0.592          estimate D2E/DX2                !
 ! D52   D(18,21,25,27)        179.6687         estimate D2E/DX2                !
 ! D53   D(26,21,25,20)        179.8742         estimate D2E/DX2                !
 ! D54   D(26,21,25,27)          0.1348         estimate D2E/DX2                !
 --------------------------------------------------------------------------------
 Trust Radius=3.00D-01 FncErr=1.00D-07 GrdErr=1.00D-06
 Number of steps in this run=    134 maximum allowed number of steps=    162.
 GradGradGradGradGradGradGradGradGradGradGradGradGradGradGradGradGradGrad

                          Input orientation:                          
 ---------------------------------------------------------------------
 Center     Atomic      Atomic             Coordinates (Angstroms)
 Number     Number       Type             X           Y           Z
 ---------------------------------------------------------------------
      1          6           0        3.727392   -1.591907   -1.015512
      2          1           0        4.671031   -1.895596   -1.470789
      3          1           0        3.395911   -2.389691   -0.332545
      4          6           0        5.177905   -0.165451    0.346243
      5          1           0        5.289567   -0.861513    1.190948
      6          7           0        3.911350   -0.331405   -0.336875
      7          1           0        2.986464   -1.487028   -1.810912
      8          1           0        5.257722    0.852937    0.729485
      9          1           0        6.000366   -0.332737   -0.353086
     10          6           0        2.815844    0.307577    0.193251
     11          1           0        3.039364    1.208805    0.750513
     12          6           0        1.502413   -0.068026    0.028220
     13          6           0        0.420424    0.657936    0.502536
     14          1           0        1.261801   -0.981729   -0.501851
     15          8           0        0.637753    1.768471    1.275743
     16          6           0       -0.982526    0.222784    0.340239
     17          6           0       -1.768331    0.803468   -0.741858
     18          6           0       -1.576681   -0.685322    1.204394
     19          8           0       -1.285329    1.691579   -1.465108
     20          6           0       -3.129642    0.340452   -0.920266
     21          6           0       -2.885593   -1.100829    1.019501
     22          1           0       -0.998049   -1.093153    2.024134
     23          1           0        0.509672    2.364576    0.535461
     24          1           0       -3.718426    0.742589   -1.734191
     25          6           0       -3.631530   -0.573253   -0.054859
     26          1           0       -3.350758   -1.826901    1.673911
     27          9           0       -4.892557   -1.012701   -0.195156
 ---------------------------------------------------------------------
                    Distance matrix (angstroms):
                    1          2          3          4          5
     1  C    0.000000
     2  H    1.090852   0.000000
     3  H    1.101265   1.779230   0.000000
     4  C    2.448090   2.559674   2.929761   0.000000
     5  H    2.800416   2.921773   2.870939   1.100226   0.000000
     6  N    1.443348   2.075950   2.121848   1.448569   2.124792
     7  H    1.092079   1.766459   1.779892   3.346984   3.834934
     8  H    3.371081   3.569291   3.887015   1.091035   1.775754
     9  H    2.681553   2.336433   3.318835   1.092469   1.780136
    10  C    2.429006   3.326367   2.808593   2.413813   2.912297
    11  H    3.381748   4.151364   3.774826   2.573979   3.089274
    12  C    2.891734   3.953123   3.017552   3.690511   4.040308
    13  C    4.278119   5.336871   4.340382   4.830737   5.146959
    14  H    2.591391   3.660169   2.562313   4.089186   4.370688
    15  O    5.107628   6.102143   5.242551   5.021653   5.344472
    16  C    5.226327   6.303179   5.142799   6.172655   6.421725
    17  C    6.001307   7.020090   6.085491   7.097391   7.504787
    18  C    5.820917   6.903280   5.476653   6.828698   6.868521
    19  O    6.009226   6.953134   6.312961   6.964405   7.536721
    20  C    7.124746   8.133479   7.098024   8.418748   8.762706
    21  C    6.936427   7.995984   6.553357   8.145441   8.180459
    22  H    5.640745   6.707971   5.151877   6.466711   6.346808
    23  H    5.330385   6.284187   5.629109   5.313119   5.803853
    24  H    7.836235   8.798431   7.898708   9.181364   9.605910
    25  C    7.490945   8.525607   7.263710   8.827985   9.012275
    26  H    7.575515   8.616435   7.061172   8.789835   8.707493
    27  F    8.678248   9.688599   8.403195  10.120531  10.277149
                    6          7          8          9         10
     6  N    0.000000
     7  H    2.088939   0.000000
     8  H    2.086266   4.133723   0.000000
     9  H    2.089079   3.541363   1.768983   0.000000
    10  C    1.374578   2.695624   2.558854   3.293883   0.000000
    11  H    2.077263   3.719034   2.246820   3.515937   1.082919
    12  C    2.450641   2.756516   3.929668   4.521841   1.376013
    13  C    3.724241   4.066629   4.846544   5.731429   2.440583
    14  H    2.733175   2.223382   4.566133   4.785114   2.135538
    15  O    4.210280   5.063809   4.741383   5.985464   2.837266
    16  C    4.971482   4.827400   6.284052   7.039182   3.802158
    17  C    5.806094   5.384916   7.178630   7.860964   4.704784
    18  C    5.711327   5.527847   7.021456   7.743494   4.615467
    19  O    5.689538   5.335854   6.952056   7.643023   4.635217
    20  C    7.096993   6.445129   8.563422   9.172345   6.048951
    21  C    6.973536   6.530041   8.379433   9.024091   5.930656
    22  H    5.500621   5.544281   6.678178   7.430156   4.456451
    23  H    4.427268   5.145369   4.986650   6.181645   3.109145
    24  H    7.830673   7.066302   9.308765   9.875155   6.826489
    25  C    7.552024   6.907716   9.037036   9.639513   6.511993
    26  H    7.682316   7.240158   9.065286   9.684253   6.691437
    27  F    8.831366   8.056961  10.361647  10.915267   7.830290
                   11         12         13         14         15
    11  H    0.000000
    12  C    2.124670   0.000000
    13  C    2.687712   1.386613   0.000000
    14  H    3.086516   1.083385   2.098859   0.000000
    15  O    2.521275   2.382577   1.370536   3.333598   0.000000
    16  C    4.161269   2.521279   1.477825   2.682717   2.426854
    17  C    5.050287   3.471353   2.521972   3.525086   3.284994
    18  C    5.010149   3.353396   2.507065   3.325073   3.306041
    19  O    4.883136   3.619080   2.801720   3.816060   3.349093
    20  C    6.449975   4.745779   3.837725   4.605215   4.588569
    21  C    6.364894   4.615617   3.780245   4.419228   4.551100
    22  H    4.818902   3.359594   2.719125   3.391156   3.380064
    23  H    2.789515   2.675889   1.709289   3.583221   0.959043
    24  H    7.215181   5.569591   4.705337   5.412448   5.393370
    25  C    6.951631   5.159412   4.271399   4.930654   5.047866
    26  H    7.134552   5.418045   4.665656   5.169522   5.384558
    27  F    8.291245   6.468226   5.612982   6.162073   6.362609
                   16         17         18         19         20
    16  C    0.000000
    17  C    1.457950   0.000000
    18  C    1.387242   2.457869   0.000000
    19  O    2.346982   1.243030   3.586194   0.000000
    20  C    2.492554   1.448924   2.824550   2.350295   0.000000
    21  C    2.415577   2.824360   1.385670   4.065916   2.428898
    22  H    2.137155   3.441107   1.083104   4.473485   3.907480
    23  H    2.617640   3.042680   3.755292   2.770781   4.411443
    24  H    3.472550   2.188904   3.906569   2.625443   1.082060
    25  C    2.794101   2.416369   2.412609   3.552876   1.354872
    26  H    3.404176   3.906259   2.161249   5.147731   3.387634
    27  F    4.135386   3.654879   3.613994   4.683802   2.337665
                   21         22         23         24         25
    21  C    0.000000
    22  H    2.138263   0.000000
    23  H    4.875567   4.055276   0.000000
    24  H    3.416814   4.989530   5.065469   0.000000
    25  C    1.410322   3.395251   5.111641   2.135216   0.000000
    26  H    1.082502   2.489233   5.810978   4.283996   2.153860
    27  F    2.347565   4.483181   6.412790   2.613093   1.342753
                   26         27
    26  H    0.000000
    27  F    2.556067   0.000000
 Stoichiometry    C11H12FNO2
 Framework group  C1[X(C11H12FNO2)]
 Deg. of freedom    75
 Full point group                 C1      NOp   1
 Largest Abelian subgroup         C1      NOp   1
 Largest concise Abelian subgroup C1      NOp   1
                         Standard orientation:                         
 ---------------------------------------------------------------------
 Center     Atomic      Atomic             Coordinates (Angstroms)
 Number     Number       Type             X           Y           Z
 ---------------------------------------------------------------------
      1          6           0       -3.719474   -1.526925    1.117859
      2          1           0       -4.661318   -1.805363    1.592579
      3          1           0       -3.391953   -2.359528    0.475765
      4          6           0       -5.174779   -0.171313   -0.309569
      5          1           0       -5.291036   -0.910177   -1.116453
      6          7           0       -3.905265   -0.303149    0.375491
      7          1           0       -2.974787   -1.381799    1.903363
      8          1           0       -5.255319    0.825889   -0.744837
      9          1           0       -5.994184   -0.301008    0.401236
     10          6           0       -2.811557    0.306050   -0.192087
     11          1           0       -3.036718    1.177392   -0.794400
     12          6           0       -1.497765   -0.062124   -0.013730
     13          6           0       -0.417229    0.636854   -0.530032
     14          1           0       -1.255651   -0.947359    0.561998
     15          8           0       -0.636979    1.705994   -1.358898
     16          6           0        0.986008    0.208955   -0.351718
     17          6           0        1.777375    0.844081    0.695168
     18          6           0        1.575254   -0.743565   -1.170214
     19          8           0        1.298612    1.769173    1.373485
     20          6           0        3.139019    0.389245    0.891208
     21          6           0        2.884577   -1.150553   -0.969929
     22          1           0        0.992441   -1.192702   -1.965022
     23          1           0       -0.504885    2.339590   -0.651176
     24          1           0        3.731951    0.832381    1.680458
     25          6           0        3.635987   -0.568815    0.072171
     26          1           0        3.345985   -1.910226   -1.587837
     27          9           0        4.897197   -1.001968    0.229382
 ---------------------------------------------------------------------
 Rotational constants (GHZ):      1.4013002      0.2424413      0.2347561
 Standard basis: 6-311++G(d,p) (5D, 7F)
 There are   429 symmetry adapted cartesian basis functions of A   symmetry.
 There are   414 symmetry adapted basis functions of A   symmetry.
   414 basis functions,   648 primitive gaussians,   429 cartesian basis functions
    55 alpha electrons       55 beta electrons
       nuclear repulsion energy       935.4608878787 Hartrees.
 NAtoms=   27 NActive=   27 NUniq=   27 SFac= 1.00D+00 NAtFMM=   60 NAOKFM=F Big=F
 Integral buffers will be    131072 words long.
 Raffenetti 1 integral format.
 Two-electron integral symmetry is turned on.
 Nuclear repulsion after empirical dispersion term =      935.4450672057 Hartrees.
 ------------------------------------------------------------------------------
 Polarizable Continuum Model (PCM)
 =================================
 Model                : PCM (using non-symmetric T matrix).
 Atomic radii         : UFF (Universal Force Field).
 Polarization charges : Total charges.
 Charge compensation  : None.
 Solution method      : On-the-fly selection.
 Cavity type          : Scaled VdW (van der Waals Surface) (Alpha=1.100).
 Cavity algorithm     : GePol (No added spheres)
                        Default sphere list used, NSphG=   27.
                        Lebedev-Laikov grids with approx.  5.0 points / Ang**2.
                        Smoothing algorithm: Karplus/York (Gamma=1.0000).
                        Polarization charges: spherical gaussians, with
                                              point-specific exponents (IZeta= 3).
                        Self-potential: point-specific (ISelfS= 7).
                        Self-field    : sphere-specific E.n sum rule (ISelfD= 2).
 1st derivatives      : Analytical E(r).r(x)/FMM algorithm (CHGder, D1EAlg=3).
                        Cavity 1st derivative terms included.
 Solvent              : Dichloromethane, Eps=   8.930000 Eps(inf)=   2.028346
 ------------------------------------------------------------------------------
 One-electron integrals computed using PRISM.
 NBasis=   414 RedAO= T EigKep=  1.50D-06  NBF=   414
 NBsUse=   413 1.00D-06 EigRej=  5.03D-07 NBFU=   413
 ExpMin= 3.60D-02 ExpMax= 1.14D+04 ExpMxC= 1.72D+03 IAcc=3 IRadAn=         5 AccDes= 0.00D+00
 Harris functional with IExCor= 4639 and IRadAn=       5 diagonalized for initial guess.
 HarFok:  IExCor= 4639 AccDes= 0.00D+00 IRadAn=         5 IDoV= 1 UseB2=F ITyADJ=14
 ICtDFT=  3500011 ScaDFX=  1.000000  1.000000  1.000000  1.000000
 FoFCou: FMM=F IPFlag=           0 FMFlag=      100000 FMFlg1=           0
         NFxFlg=           0 DoJE=T BraDBF=F KetDBF=T FulRan=T
         wScrn=  0.000000 ICntrl=     500 IOpCl=  0 I1Cent=   200000004 NGrid=           0
         NMat0=    1 NMatS0=      1 NMatT0=    0 NMatD0=    1 NMtDS0=    0 NMtDT0=    0
 Petite list used in FoFCou.
 Requested convergence on RMS density matrix=1.00D-08 within 128 cycles.
 Requested convergence on MAX density matrix=1.00D-06.
 Requested convergence on             energy=1.00D-06.
 No special actions if energy rises.
 Inv3:  Mode=1 IEnd=    14559627.
 Iteration    1 A*A^-1 deviation from unit magnitude is 4.22D-15 for   2167.
 Iteration    1 A*A^-1 deviation from orthogonality  is 5.46D-15 for   1807   1479.
 Iteration    1 A^-1*A deviation from unit magnitude is 4.44D-15 for   2185.
 Iteration    1 A^-1*A deviation from orthogonality  is 1.67D-10 for   2202   2199.
 Iteration    2 A*A^-1 deviation from unit magnitude is 3.22D-15 for   1742.
 Iteration    2 A*A^-1 deviation from orthogonality  is 3.43D-15 for   2182    407.
 Iteration    2 A^-1*A deviation from unit magnitude is 8.88D-16 for    317.
 Iteration    2 A^-1*A deviation from orthogonality  is 1.03D-15 for   2192     10.
 Error on total polarization charges =  0.01366
 SCF Done:  E(RwB97XD) =  -731.321318277     A.U. after   19 cycles
            NFock= 19  Conv=0.50D-08     -V/T= 2.0038
 DoSCS=F DFT=T ScalE2(SS,OS)=  1.000000  1.000000
 ExpMin= 3.60D-02 ExpMax= 1.14D+04 ExpMxC= 1.72D+03 IAcc=3 IRadAn=         5 AccDes= 0.00D+00
 HarFok:  IExCor=  205 AccDes= 0.00D+00 IRadAn=         5 IDoV=-2 UseB2=F ITyADJ=14
 ICtDFT= 12500011 ScaDFX=  1.000000  1.000000  1.000000  1.000000
 Range of M.O.s used for correlation:    16   413
 NBasis=   414 NAE=    55 NBE=    55 NFC=    15 NFV=     0
 NROrb=    398 NOA=    40 NOB=    40 NVA=   358 NVB=   358

 **** Warning!!: The largest alpha MO coefficient is  0.18120775D+03

 Would need an additional         21642200000 words for in-memory AO integral storage.
 NEqPCM:  Using equilibrium solvation (IEInf=0, Eps=   8.9300, EpsInf=   2.0283)
 Orbital symmetries:
       Occupied  (A) (A) (A) (A) (A) (A) (A) (A) (A) (A) (A) (A)
                 (A) (A) (A) (A) (A) (A) (A) (A) (A) (A) (A) (A)
                 (A) (A) (A) (A) (A) (A) (A) (A) (A) (A) (A) (A)
                 (A) (A) (A) (A) (A) (A) (A) (A) (A) (A) (A) (A)
                 (A) (A) (A) (A) (A) (A) (A)
       Virtual   (A) (A) (A) (A) (A) (A) (A) (A) (A) (A) (A) (A)
                 (A) (A) (A) (A) (A) (A) (A) (A) (A) (A) (A) (A)
                 (A) (A) (A) (A) (A) (A) (A) (A) (A) (A) (A) (A)
                 (A) (A) (A) (A) (A) (A) (A) (A) (A) (A) (A) (A)
                 (A) (A) (A) (A) (A) (A) (A) (A) (A) (A) (A) (A)
                 (A) (A) (A) (A) (A) (A) (A) (A) (A) (A) (A) (A)
                 (A) (A) (A) (A) (A) (A) (A) (A) (A) (A) (A) (A)
                 (A) (A) (A) (A) (A) (A) (A) (A) (A) (A) (A) (A)
                 (A) (A) (A) (A) (A) (A) (A) (A) (A) (A) (A) (A)
                 (A) (A) (A) (A) (A) (A) (A) (A) (A) (A) (A) (A)
                 (A) (A) (A) (A) (A) (A) (A) (A) (A) (A) (A) (A)
                 (A) (A) (A) (A) (A) (A) (A) (A) (A) (A) (A) (A)
                 (A) (A) (A) (A) (A) (A) (A) (A) (A) (A) (A) (A)
                 (A) (A) (A) (A) (A) (A) (A) (A) (A) (A) (A) (A)
                 (A) (A) (A) (A) (A) (A) (A) (A) (A) (A) (A) (A)
                 (A) (A) (A) (A) (A) (A) (A) (A) (A) (A) (A) (A)
                 (A) (A) (A) (A) (A) (A) (A) (A) (A) (A) (A) (A)
                 (A) (A) (A) (A) (A) (A) (A) (A) (A) (A) (A) (A)
                 (A) (A) (A) (A) (A) (A) (A) (A) (A) (A) (A) (A)
                 (A) (A) (A) (A) (A) (A) (A) (A) (A) (A) (A) (A)
                 (A) (A) (A) (A) (A) (A) (A) (A) (A) (A) (A) (A)
                 (A) (A) (A) (A) (A) (A) (A) (A) (A) (A) (A) (A)
                 (A) (A) (A) (A) (A) (A) (A) (A) (A) (A) (A) (A)
                 (A) (A) (A) (A) (A) (A) (A) (A) (A) (A) (A) (A)
                 (A) (A) (A) (A) (A) (A) (A) (A) (A) (A) (A) (A)
                 (A) (A) (A) (A) (A) (A) (A) (A) (A) (A) (A) (A)
                 (A) (A) (A) (A) (A) (A) (A) (A) (A) (A) (A) (A)
                 (A) (A) (A) (A) (A) (A) (A) (A) (A) (A) (A) (A)
                 (A) (A) (A) (A) (A) (A) (A) (A) (A) (A) (A) (A)
                 (A) (A) (A) (A) (A) (A) (A) (A) (A) (A)
     8 initial guesses have been made.
 Convergence on wavefunction:    0.000001000000000
 Iteration     1 Dimension     8 NMult     0 NNew      8
 CISAX will form     8 AO SS matrices at one time.
 Iteration     2 Dimension    12 NMult     8 NNew      4
 Iteration     3 Dimension    16 NMult    12 NNew      4
 Iteration     4 Dimension    20 NMult    16 NNew      4
 Iteration     5 Dimension    24 NMult    20 NNew      4
 Iteration     6 Dimension    28 NMult    24 NNew      4
 Iteration     7 Dimension    32 NMult    28 NNew      4
 Iteration     8 Dimension    36 NMult    32 NNew      4
 Iteration     9 Dimension    40 NMult    36 NNew      4
 Iteration    10 Dimension    44 NMult    40 NNew      4
 ***********************************************************************
 Excited states from <AA,BB:AA,BB> singles matrix:
 ***********************************************************************
 
 Ground to excited state transition densities written to RWF  633
 Ground to excited state transition electric dipole moments (Au):
       state          X           Y           Z        Dip. S.      Osc.
         1         0.1603      0.0033      0.0160      0.0260      0.0011
 Ground to excited state transition velocity dipole moments (Au):
       state          X           Y           Z        Dip. S.      Osc.
         1        -0.0099      0.0009     -0.0040      0.0001      0.0012
 Ground to excited state transition magnetic dipole moments (Au):
       state          X           Y           Z
         1         0.0937      0.0400     -0.0351
 Ground to excited state transition velocity quadrupole moments (Au):
       state          XX          YY          ZZ          XY          XZ          YZ
         1         0.0037     -0.0028      0.0022      0.0085     -0.0082     -0.0072
 <0|del|b> * <b|rxdel|0> + <0|del|b> * <b|delr+rdel|0>
 Rotatory Strengths (R) in cgs (10**-40 erg-esu-cm/Gauss)
       state          XX          YY          ZZ    R(velocity)    E-M Angle
         1         0.8474     -3.9294     -5.5916     -2.8912      130.80
 1/2[<0|r|b>*<b|rxdel|0> + (<0|rxdel|b>*<b|r|0>)*]
 Rotatory Strengths (R) in cgs (10**-40 erg-esu-cm/Gauss)
       state          XX          YY          ZZ     R(length)
         1       -10.6279     -0.0930      0.3967     -3.4414
  1/2[<0|del|b>*<b|r|0> + (<0|r|b>*<b|del|0>)*] (Au)
       state          X           Y           Z        Dip. S.   Osc.(frdel)
         1        -0.0016      0.0000     -0.0001      0.0016      0.0011

 Excitation energies and oscillator strengths:
 
 Excited State   1:      Singlet-A      1.6657 eV  744.34 nm  f=0.0011  <S**2>=0.000
      53 -> 56        -0.11096
      55 -> 56         0.68625
 This state for optimization and/or second-order correction.
 Total Energy, E(TD-HF/TD-KS) =  -731.260105165    
 Copying the excited state density for this state as the 1-particle RhoCI density.
 SavETr:  write IOETrn=   770 NScale= 10 NData=  16 NLR=1 NState=    1 LETran=      28.
          IDoAtm=111111111111111111111111111
 NEqPCM:  Using equilibrium solvation (IEInf=0, Eps=   8.9300, EpsInf=   2.0283)
          Differentiating once with respect to electric field.
                with respect to dipole field.
          Differentiating once with respect to nuclear coordinates.
          There are     1 degrees of freedom in the 1st order CPHF.  IDoFFX=0 NUNeed=     1.
 LinEq1:  Iter=  0 NonCon=     1 RMS=6.36D-03 Max=1.56D-01 NDo=     1
 AX will form     1 AO Fock derivatives at one time.
 LinEq1:  Iter=  1 NonCon=     1 RMS=2.07D-03 Max=5.67D-02 NDo=     1
 LinEq1:  Iter=  2 NonCon=     1 RMS=1.67D-03 Max=9.96D-02 NDo=     1
 LinEq1:  Iter=  3 NonCon=     1 RMS=6.77D-04 Max=3.19D-02 NDo=     1
 LinEq1:  Iter=  4 NonCon=     1 RMS=3.31D-04 Max=1.16D-02 NDo=     1
 LinEq1:  Iter=  5 NonCon=     1 RMS=1.35D-04 Max=3.55D-03 NDo=     1
 LinEq1:  Iter=  6 NonCon=     1 RMS=7.24D-05 Max=2.76D-03 NDo=     1
 LinEq1:  Iter=  7 NonCon=     1 RMS=3.60D-05 Max=2.33D-03 NDo=     1
 LinEq1:  Iter=  8 NonCon=     1 RMS=1.83D-05 Max=1.20D-03 NDo=     1
 LinEq1:  Iter=  9 NonCon=     1 RMS=9.74D-06 Max=5.94D-04 NDo=     1
 LinEq1:  Iter= 10 NonCon=     1 RMS=4.30D-06 Max=1.61D-04 NDo=     1
 LinEq1:  Iter= 11 NonCon=     1 RMS=2.31D-06 Max=6.73D-05 NDo=     1
 LinEq1:  Iter= 12 NonCon=     1 RMS=9.57D-07 Max=3.95D-05 NDo=     1
 LinEq1:  Iter= 13 NonCon=     1 RMS=5.02D-07 Max=1.40D-05 NDo=     1
 LinEq1:  Iter= 14 NonCon=     1 RMS=2.18D-07 Max=9.83D-06 NDo=     1
 LinEq1:  Iter= 15 NonCon=     1 RMS=1.06D-07 Max=2.79D-06 NDo=     1
 LinEq1:  Iter= 16 NonCon=     1 RMS=5.84D-08 Max=2.76D-06 NDo=     1
 LinEq1:  Iter= 17 NonCon=     1 RMS=2.85D-08 Max=4.68D-07 NDo=     1
 LinEq1:  Iter= 18 NonCon=     1 RMS=1.18D-08 Max=3.51D-07 NDo=     1
 LinEq1:  Iter= 19 NonCon=     1 RMS=4.58D-09 Max=1.32D-07 NDo=     1
 LinEq1:  Iter= 20 NonCon=     1 RMS=2.52D-09 Max=1.09D-07 NDo=     1
 LinEq1:  Iter= 21 NonCon=     1 RMS=8.92D-10 Max=4.21D-08 NDo=     1
 LinEq1:  Iter= 22 NonCon=     1 RMS=4.71D-10 Max=1.80D-08 NDo=     1
 LinEq1:  Iter= 23 NonCon=     1 RMS=2.12D-10 Max=8.15D-09 NDo=     1
 LinEq1:  Iter= 24 NonCon=     1 RMS=7.37D-11 Max=2.66D-09 NDo=     1
 LinEq1:  Iter= 25 NonCon=     1 RMS=3.51D-11 Max=1.16D-09 NDo=     1
 LinEq1:  Iter= 26 NonCon=     0 RMS=1.39D-11 Max=4.31D-10 NDo=     1
 Linear equations converged to 1.000D-10 1.000D-09 after    26 iterations.
 End of Minotr F.D. properties file   721 does not exist.
 End of Minotr F.D. properties file   722 does not exist.
 End of Minotr F.D. properties file   788 does not exist.

 **********************************************************************

            Population analysis using the SCF density.

 **********************************************************************

 Orbital symmetries:
       Occupied  (A) (A) (A) (A) (A) (A) (A) (A) (A) (A) (A) (A)
                 (A) (A) (A) (A) (A) (A) (A) (A) (A) (A) (A) (A)
                 (A) (A) (A) (A) (A) (A) (A) (A) (A) (A) (A) (A)
                 (A) (A) (A) (A) (A) (A) (A) (A) (A) (A) (A) (A)
                 (A) (A) (A) (A) (A) (A) (A)
       Virtual   (A) (A) (A) (A) (A) (A) (A) (A) (A) (A) (A) (A)
                 (A) (A) (A) (A) (A) (A) (A) (A) (A) (A) (A) (A)
                 (A) (A) (A) (A) (A) (A) (A) (A) (A) (A) (A) (A)
                 (A) (A) (A) (A) (A) (A) (A) (A) (A) (A) (A) (A)
                 (A) (A) (A) (A) (A) (A) (A) (A) (A) (A) (A) (A)
                 (A) (A) (A) (A) (A) (A) (A) (A) (A) (A) (A) (A)
                 (A) (A) (A) (A) (A) (A) (A) (A) (A) (A) (A) (A)
                 (A) (A) (A) (A) (A) (A) (A) (A) (A) (A) (A) (A)
                 (A) (A) (A) (A) (A) (A) (A) (A) (A) (A) (A) (A)
                 (A) (A) (A) (A) (A) (A) (A) (A) (A) (A) (A) (A)
                 (A) (A) (A) (A) (A) (A) (A) (A) (A) (A) (A) (A)
                 (A) (A) (A) (A) (A) (A) (A) (A) (A) (A) (A) (A)
                 (A) (A) (A) (A) (A) (A) (A) (A) (A) (A) (A) (A)
                 (A) (A) (A) (A) (A) (A) (A) (A) (A) (A) (A) (A)
                 (A) (A) (A) (A) (A) (A) (A) (A) (A) (A) (A) (A)
                 (A) (A) (A) (A) (A) (A) (A) (A) (A) (A) (A) (A)
                 (A) (A) (A) (A) (A) (A) (A) (A) (A) (A) (A) (A)
                 (A) (A) (A) (A) (A) (A) (A) (A) (A) (A) (A) (A)
                 (A) (A) (A) (A) (A) (A) (A) (A) (A) (A) (A) (A)
                 (A) (A) (A) (A) (A) (A) (A) (A) (A) (A) (A) (A)
                 (A) (A) (A) (A) (A) (A) (A) (A) (A) (A) (A) (A)
                 (A) (A) (A) (A) (A) (A) (A) (A) (A) (A) (A) (A)
                 (A) (A) (A) (A) (A) (A) (A) (A) (A) (A) (A) (A)
                 (A) (A) (A) (A) (A) (A) (A) (A) (A) (A) (A) (A)
                 (A) (A) (A) (A) (A) (A) (A) (A) (A) (A) (A) (A)
                 (A) (A) (A) (A) (A) (A) (A) (A) (A) (A) (A) (A)
                 (A) (A) (A) (A) (A) (A) (A) (A) (A) (A) (A) (A)
                 (A) (A) (A) (A) (A) (A) (A) (A) (A) (A) (A) (A)
                 (A) (A) (A) (A) (A) (A) (A) (A) (A) (A) (A) (A)
                 (A) (A) (A) (A) (A) (A) (A) (A) (A) (A)
 The electronic state is 1-A.
 Alpha  occ. eigenvalues --  -24.81467 -19.30615 -19.17437 -14.53801 -10.42491
 Alpha  occ. eigenvalues --  -10.40396 -10.36345 -10.34145 -10.33906 -10.33794
 Alpha  occ. eigenvalues --  -10.32292 -10.29500 -10.27860 -10.26676 -10.26309
 Alpha  occ. eigenvalues --   -1.33173  -1.20965  -1.11638  -1.09226  -0.95088
 Alpha  occ. eigenvalues --   -0.93433  -0.87275  -0.86110  -0.83313  -0.80869
 Alpha  occ. eigenvalues --   -0.74943  -0.70308  -0.69344  -0.68351  -0.64566
 Alpha  occ. eigenvalues --   -0.64347  -0.60957  -0.60658  -0.59740  -0.58862
 Alpha  occ. eigenvalues --   -0.57674  -0.56138  -0.55899  -0.52257  -0.51756
 Alpha  occ. eigenvalues --   -0.51508  -0.50936  -0.49773  -0.49182  -0.48589
 Alpha  occ. eigenvalues --   -0.47723  -0.47038  -0.45349  -0.43074  -0.41977
 Alpha  occ. eigenvalues --   -0.39651  -0.36025  -0.32613  -0.31024  -0.25442
 Alpha virt. eigenvalues --   -0.05947   0.03615   0.04908   0.05293   0.05656
 Alpha virt. eigenvalues --    0.05913   0.06414   0.06795   0.07617   0.08139
 Alpha virt. eigenvalues --    0.08345   0.08673   0.09086   0.09543   0.10083
 Alpha virt. eigenvalues --    0.10428   0.11214   0.12245   0.12618   0.12741
 Alpha virt. eigenvalues --    0.13558   0.14007   0.14432   0.14665   0.15288
 Alpha virt. eigenvalues --    0.15947   0.16417   0.16660   0.17051   0.17565
 Alpha virt. eigenvalues --    0.17739   0.18149   0.18332   0.18560   0.18633
 Alpha virt. eigenvalues --    0.19086   0.19365   0.19629   0.20428   0.20635
 Alpha virt. eigenvalues --    0.20933   0.21143   0.21683   0.22054   0.22375
 Alpha virt. eigenvalues --    0.22925   0.23353   0.23624   0.24221   0.24543
 Alpha virt. eigenvalues --    0.24864   0.25413   0.25751   0.26614   0.27355
 Alpha virt. eigenvalues --    0.27452   0.27959   0.28500   0.29025   0.29617
 Alpha virt. eigenvalues --    0.29913   0.30550   0.30611   0.30638   0.31109
 Alpha virt. eigenvalues --    0.31645   0.32220   0.32485   0.33427   0.34033
 Alpha virt. eigenvalues --    0.34256   0.34371   0.35160   0.35430   0.36242
 Alpha virt. eigenvalues --    0.36542   0.36998   0.37790   0.38012   0.38562
 Alpha virt. eigenvalues --    0.39798   0.40091   0.40244   0.41386   0.42011
 Alpha virt. eigenvalues --    0.42643   0.43255   0.43673   0.43896   0.44013
 Alpha virt. eigenvalues --    0.45759   0.46426   0.47050   0.48711   0.49068
 Alpha virt. eigenvalues --    0.49360   0.50219   0.51167   0.51549   0.52438
 Alpha virt. eigenvalues --    0.53187   0.55798   0.57369   0.58093   0.59389
 Alpha virt. eigenvalues --    0.60341   0.61385   0.63978   0.64364   0.65625
 Alpha virt. eigenvalues --    0.66001   0.66444   0.66827   0.67849   0.68732
 Alpha virt. eigenvalues --    0.69733   0.70290   0.70710   0.71413   0.71871
 Alpha virt. eigenvalues --    0.72412   0.72664   0.73392   0.74480   0.74863
 Alpha virt. eigenvalues --    0.76127   0.76624   0.77580   0.77817   0.78662
 Alpha virt. eigenvalues --    0.78737   0.80364   0.80498   0.82188   0.83228
 Alpha virt. eigenvalues --    0.83884   0.84114   0.85642   0.86568   0.88471
 Alpha virt. eigenvalues --    0.91142   0.91705   0.92137   0.94315   0.95356
 Alpha virt. eigenvalues --    0.96438   0.96911   0.97422   0.97526   0.99408
 Alpha virt. eigenvalues --    1.00236   1.00929   1.03197   1.03824   1.04549
 Alpha virt. eigenvalues --    1.06255   1.07180   1.09115   1.10483   1.10972
 Alpha virt. eigenvalues --    1.12879   1.13630   1.14672   1.16098   1.18920
 Alpha virt. eigenvalues --    1.19994   1.20861   1.24055   1.25286   1.26221
 Alpha virt. eigenvalues --    1.27309   1.30400   1.31433   1.32335   1.34759
 Alpha virt. eigenvalues --    1.36600   1.37190   1.38691   1.40103   1.43668
 Alpha virt. eigenvalues --    1.48462   1.49217   1.50641   1.51938   1.52767
 Alpha virt. eigenvalues --    1.53267   1.53708   1.55356   1.56717   1.58320
 Alpha virt. eigenvalues --    1.58942   1.60009   1.60630   1.63072   1.63320
 Alpha virt. eigenvalues --    1.63950   1.64689   1.66062   1.66530   1.67590
 Alpha virt. eigenvalues --    1.69294   1.69908   1.70635   1.71591   1.73338
 Alpha virt. eigenvalues --    1.74696   1.75186   1.76290   1.77392   1.79117
 Alpha virt. eigenvalues --    1.79978   1.80460   1.82500   1.84240   1.86463
 Alpha virt. eigenvalues --    1.86945   1.88048   1.89016   1.90297   1.92197
 Alpha virt. eigenvalues --    1.94075   1.97416   1.98297   2.00329   2.03264
 Alpha virt. eigenvalues --    2.03772   2.04483   2.07264   2.07720   2.08420
 Alpha virt. eigenvalues --    2.10183   2.11034   2.12632   2.14233   2.15056
 Alpha virt. eigenvalues --    2.17215   2.17550   2.18691   2.19253   2.20661
 Alpha virt. eigenvalues --    2.22030   2.22667   2.26319   2.28997   2.29699
 Alpha virt. eigenvalues --    2.33865   2.34943   2.39684   2.40353   2.42905
 Alpha virt. eigenvalues --    2.46582   2.49123   2.51269   2.53412   2.55483
 Alpha virt. eigenvalues --    2.57209   2.58085   2.58905   2.60235   2.62712
 Alpha virt. eigenvalues --    2.65887   2.67971   2.69979   2.70412   2.71974
 Alpha virt. eigenvalues --    2.74570   2.75773   2.77037   2.78777   2.79935
 Alpha virt. eigenvalues --    2.81666   2.83259   2.83639   2.84222   2.85570
 Alpha virt. eigenvalues --    2.87252   2.88624   2.89835   2.92405   2.93438
 Alpha virt. eigenvalues --    2.95498   2.95668   2.98440   3.00987   3.02570
 Alpha virt. eigenvalues --    3.03561   3.04580   3.07188   3.08708   3.09744
 Alpha virt. eigenvalues --    3.11521   3.19211   3.21121   3.22358   3.23359
 Alpha virt. eigenvalues --    3.25729   3.26389   3.34467   3.38099   3.39397
 Alpha virt. eigenvalues --    3.43862   3.47270   3.48073   3.49130   3.56251
 Alpha virt. eigenvalues --    3.60814   3.63522   3.64506   3.66639   3.70941
 Alpha virt. eigenvalues --    3.76619   3.77518   3.83381   3.84683   3.86036
 Alpha virt. eigenvalues --    3.87670   3.88312   3.90355   3.90935   3.95405
 Alpha virt. eigenvalues --    3.98716   4.07514   4.08963   4.12770   4.16777
 Alpha virt. eigenvalues --    4.23562   4.28316   4.30934   4.34025   4.47919
 Alpha virt. eigenvalues --    4.92420   4.95197   4.98237   5.09225   5.23231
 Alpha virt. eigenvalues --    5.26004   5.40884   5.57637   5.74330   5.92335
 Alpha virt. eigenvalues --    6.44928   6.56598   6.87944  23.72022  23.85195
 Alpha virt. eigenvalues --   24.01601  24.03159  24.04616  24.06050  24.08651
 Alpha virt. eigenvalues --   24.17318  24.24789  24.28543  24.34001  35.62463
 Alpha virt. eigenvalues --   50.05039  50.23305  66.95692
          Condensed to atoms (all electrons):
               1          2          3          4          5          6
     1  C    5.436487   0.374364   0.419482  -0.137652   0.019004   0.278455
     2  H    0.374364   0.460680  -0.018945   0.000636  -0.002999  -0.037684
     3  H    0.419482  -0.018945   0.466273  -0.018124   0.004573  -0.041569
     4  C   -0.137652   0.000636  -0.018124   5.341783   0.417866   0.252111
     5  H    0.019004  -0.002999   0.004573   0.417866   0.501690  -0.017659
     6  N    0.278455  -0.037684  -0.041569   0.252111  -0.017659   6.587410
     7  H    0.390386  -0.018949  -0.040376   0.016076  -0.000649  -0.026749
     8  H    0.000372   0.002553  -0.001519   0.386486  -0.038649  -0.071608
     9  H   -0.028384   0.001870   0.002392   0.394953  -0.051481  -0.041610
    10  C   -0.216447   0.024972   0.019988  -0.210862  -0.073728   0.103264
    11  H    0.015994   0.000321  -0.001639  -0.016143   0.007341  -0.040785
    12  C    0.205362   0.001814  -0.018874   0.010107   0.017543  -0.056014
    13  C   -0.171117  -0.003453   0.001124  -0.045423  -0.007380  -0.036605
    14  H    0.022830   0.000433  -0.003819   0.006169   0.002379  -0.018736
    15  O   -0.003530   0.000076   0.000358  -0.007309   0.000083  -0.002745
    16  C   -0.119432  -0.001606  -0.001682  -0.010053  -0.001237  -0.022689
    17  C   -0.011934   0.000819  -0.001047  -0.019072   0.001068  -0.013129
    18  C    0.020645   0.000186  -0.002142   0.023377  -0.001744   0.019553
    19  O    0.001508   0.000214  -0.000165  -0.000012  -0.000015   0.000789
    20  C   -0.000879  -0.000293  -0.000534   0.000616  -0.000033   0.000099
    21  C    0.003911   0.000304   0.001126   0.001961  -0.000446   0.001062
    22  H    0.000365   0.000201  -0.001075  -0.000546  -0.000102   0.000345
    23  H    0.000761  -0.000014  -0.000041   0.001643   0.000068   0.000589
    24  H   -0.000021   0.000008  -0.000016  -0.000002  -0.000001   0.000035
    25  C    0.000665   0.000012  -0.000128  -0.000262   0.000034  -0.000294
    26  H   -0.000264  -0.000012   0.000068   0.000017   0.000000  -0.000029
    27  F    0.000004   0.000000   0.000002   0.000000   0.000000   0.000000
               7          8          9         10         11         12
     1  C    0.390386   0.000372  -0.028384  -0.216447   0.015994   0.205362
     2  H   -0.018949   0.002553   0.001870   0.024972   0.000321   0.001814
     3  H   -0.040376  -0.001519   0.002392   0.019988  -0.001639  -0.018874
     4  C    0.016076   0.386486   0.394953  -0.210862  -0.016143   0.010107
     5  H   -0.000649  -0.038649  -0.051481  -0.073728   0.007341   0.017543
     6  N   -0.026749  -0.071608  -0.041610   0.103264  -0.040785  -0.056014
     7  H    0.499883  -0.002138   0.000391   0.016821   0.000476  -0.030052
     8  H   -0.002138   0.508283  -0.012573   0.048370  -0.008892  -0.010796
     9  H    0.000391  -0.012573   0.512341   0.021921  -0.002550   0.010000
    10  C    0.016821   0.048370   0.021921   8.758608   0.408707  -2.016670
    11  H    0.000476  -0.008892  -0.002550   0.408707   0.418225   0.060286
    12  C   -0.030052  -0.010796   0.010000  -2.016670   0.060286  11.544814
    13  C   -0.011468   0.013230   0.000327  -0.821934  -0.076169  -0.636548
    14  H   -0.006308  -0.001655  -0.001640  -0.109720   0.002954   0.563858
    15  O    0.000171   0.001011  -0.000181   0.021099   0.012790  -0.579353
    16  C    0.001377   0.006199  -0.001576   0.509860  -0.037088  -3.980809
    17  C   -0.003324  -0.001658  -0.001375  -0.208816   0.006932  -0.524429
    18  C    0.003564   0.003033   0.001548  -0.174691  -0.018150   1.324183
    19  O   -0.000112  -0.000088  -0.000011  -0.003426   0.002882  -0.010479
    20  C    0.000699  -0.000453   0.000087   0.061636   0.006601   0.004632
    21  C    0.002954   0.000442   0.000172   0.240060  -0.001151   0.148382
    22  H    0.000336   0.000254  -0.000042  -0.024610  -0.000618  -0.024552
    23  H    0.000286   0.000265  -0.000192  -0.002239  -0.006646   0.027924
    24  H    0.000036   0.000001   0.000000   0.001220   0.000096  -0.007678
    25  C   -0.000862   0.000067  -0.000041  -0.070563  -0.002685   0.104042
    26  H    0.000035  -0.000003   0.000001   0.004635   0.000061  -0.009725
    27  F    0.000004   0.000000   0.000000   0.000196   0.000000   0.000889
              13         14         15         16         17         18
     1  C   -0.171117   0.022830  -0.003530  -0.119432  -0.011934   0.020645
     2  H   -0.003453   0.000433   0.000076  -0.001606   0.000819   0.000186
     3  H    0.001124  -0.003819   0.000358  -0.001682  -0.001047  -0.002142
     4  C   -0.045423   0.006169  -0.007309  -0.010053  -0.019072   0.023377
     5  H   -0.007380   0.002379   0.000083  -0.001237   0.001068  -0.001744
     6  N   -0.036605  -0.018736  -0.002745  -0.022689  -0.013129   0.019553
     7  H   -0.011468  -0.006308   0.000171   0.001377  -0.003324   0.003564
     8  H    0.013230  -0.001655   0.001011   0.006199  -0.001658   0.003033
     9  H    0.000327  -0.001640  -0.000181  -0.001576  -0.001375   0.001548
    10  C   -0.821934  -0.109720   0.021099   0.509860  -0.208816  -0.174691
    11  H   -0.076169   0.002954   0.012790  -0.037088   0.006932  -0.018150
    12  C   -0.636548   0.563858  -0.579353  -3.980809  -0.524429   1.324183
    13  C   10.450793  -0.019529   0.560330  -0.335672  -2.000948  -1.234468
    14  H   -0.019529   0.460000  -0.009071  -0.112841  -0.071482   0.036574
    15  O    0.560330  -0.009071   7.833800   0.311462  -0.033888  -0.129123
    16  C   -0.335672  -0.112841   0.311462  15.864480  -1.112316  -3.898821
    17  C   -2.000948  -0.071482  -0.033888  -1.112316  17.589984  -3.535853
    18  C   -1.234468   0.036574  -0.129123  -3.898821  -3.535853  13.806360
    19  O    0.149511   0.002535  -0.011471  -0.028565   0.064188  -0.008532
    20  C    0.482682   0.032171  -0.007881  -0.858199  -4.057362   0.886776
    21  C    0.542774  -0.036870  -0.023788   0.222796  -1.842234  -1.471065
    22  H   -0.060698  -0.003154  -0.000614   0.005240   0.097563   0.384755
    23  H    0.022214  -0.000807   0.248824  -0.002530  -0.073645   0.069139
    24  H   -0.013160  -0.000257  -0.000223   0.001146  -0.083356   0.042742
    25  C   -0.360499   0.000155  -0.000157  -1.411588   2.409666   0.277135
    26  H    0.018964  -0.000825   0.000104   0.109035  -0.023225  -0.117854
    27  F   -0.002623  -0.000310  -0.000009  -0.017873   0.031377   0.017229
              19         20         21         22         23         24
     1  C    0.001508  -0.000879   0.003911   0.000365   0.000761  -0.000021
     2  H    0.000214  -0.000293   0.000304   0.000201  -0.000014   0.000008
     3  H   -0.000165  -0.000534   0.001126  -0.001075  -0.000041  -0.000016
     4  C   -0.000012   0.000616   0.001961  -0.000546   0.001643  -0.000002
     5  H   -0.000015  -0.000033  -0.000446  -0.000102   0.000068  -0.000001
     6  N    0.000789   0.000099   0.001062   0.000345   0.000589   0.000035
     7  H   -0.000112   0.000699   0.002954   0.000336   0.000286   0.000036
     8  H   -0.000088  -0.000453   0.000442   0.000254   0.000265   0.000001
     9  H   -0.000011   0.000087   0.000172  -0.000042  -0.000192   0.000000
    10  C   -0.003426   0.061636   0.240060  -0.024610  -0.002239   0.001220
    11  H    0.002882   0.006601  -0.001151  -0.000618  -0.006646   0.000096
    12  C   -0.010479   0.004632   0.148382  -0.024552   0.027924  -0.007678
    13  C    0.149511   0.482682   0.542774  -0.060698   0.022214  -0.013160
    14  H    0.002535   0.032171  -0.036870  -0.003154  -0.000807  -0.000257
    15  O   -0.011471  -0.007881  -0.023788  -0.000614   0.248824  -0.000223
    16  C   -0.028565  -0.858199   0.222796   0.005240  -0.002530   0.001146
    17  C    0.064188  -4.057362  -1.842234   0.097563  -0.073645  -0.083356
    18  C   -0.008532   0.886776  -1.471065   0.384755   0.069139   0.042742
    19  O    8.507390  -0.069573   0.029209  -0.001768  -0.005102  -0.006954
    20  C   -0.069573  12.974885  -1.127395   0.019188  -0.008599   0.644685
    21  C    0.029209  -1.127395  10.475182  -0.163977   0.004560  -0.066181
    22  H   -0.001768   0.019188  -0.163977   0.478235   0.000439   0.001909
    23  H   -0.005102  -0.008599   0.004560   0.000439   0.377996  -0.000352
    24  H   -0.006954   0.644685  -0.066181   0.001909  -0.000352   0.467816
    25  C   -0.062499  -2.981834  -1.061183   0.053072   0.002693  -0.206059
    26  H    0.000266  -0.055088   0.607630  -0.014227  -0.000110  -0.001370
    27  F   -0.000902  -0.300464  -0.310126   0.001166  -0.000004  -0.019838
              25         26         27
     1  C    0.000665  -0.000264   0.000004
     2  H    0.000012  -0.000012   0.000000
     3  H   -0.000128   0.000068   0.000002
     4  C   -0.000262   0.000017   0.000000
     5  H    0.000034   0.000000   0.000000
     6  N   -0.000294  -0.000029   0.000000
     7  H   -0.000862   0.000035   0.000004
     8  H    0.000067  -0.000003   0.000000
     9  H   -0.000041   0.000001   0.000000
    10  C   -0.070563   0.004635   0.000196
    11  H   -0.002685   0.000061   0.000000
    12  C    0.104042  -0.009725   0.000889
    13  C   -0.360499   0.018964  -0.002623
    14  H    0.000155  -0.000825  -0.000310
    15  O   -0.000157   0.000104  -0.000009
    16  C   -1.411588   0.109035  -0.017873
    17  C    2.409666  -0.023225   0.031377
    18  C    0.277135  -0.117854   0.017229
    19  O   -0.062499   0.000266  -0.000902
    20  C   -2.981834  -0.055088  -0.300464
    21  C   -1.061183   0.607630  -0.310126
    22  H    0.053072  -0.014227   0.001166
    23  H    0.002693  -0.000110  -0.000004
    24  H   -0.206059  -0.001370  -0.019838
    25  C    9.512908  -0.202747   0.621767
    26  H   -0.202747   0.472299  -0.023024
    27  F    0.621767  -0.023024   9.179783
 Mulliken charges:
               1
     1  C   -0.500933
     2  H    0.214493
     3  H    0.236307
     4  C   -0.388344
     5  H    0.224474
     6  N    0.184194
     7  H    0.207491
     8  H    0.179463
     9  H    0.195652
    10  C   -0.307651
    11  H    0.268853
    12  C   -0.117858
    13  C   -0.404258
    14  H    0.266966
    15  O   -0.180766
    16  C    0.922982
    17  C   -0.582504
    18  C   -0.324357
    19  O   -0.548817
    20  C    0.353829
    21  C   -0.178110
    22  H    0.252916
    23  H    0.342881
    24  H    0.245772
    25  C   -0.620816
    26  H    0.235387
    27  F   -0.177246
 Sum of Mulliken charges =   0.00000
 Mulliken charges with hydrogens summed into heavy atoms:
               1
     1  C    0.157358
     4  C    0.211244
     6  N    0.184194
    10  C   -0.038799
    12  C    0.149108
    13  C   -0.404258
    15  O    0.162114
    16  C    0.922982
    17  C   -0.582504
    18  C   -0.071441
    19  O   -0.548817
    20  C    0.599601
    21  C    0.057277
    25  C   -0.620816
    27  F   -0.177246
 Electronic spatial extent (au):  <R**2>=           4631.1651
 Charge=              0.0000 electrons
 Dipole moment (field-independent basis, Debye):
    X=            -19.1720    Y=             -4.3246    Z=             -2.5933  Tot=             19.8240
 Quadrupole moment (field-independent basis, Debye-Ang):
   XX=            -60.8025   YY=            -89.8439   ZZ=            -93.6292
   XY=              3.5657   XZ=             -4.8953   YZ=             -6.6262
 Traceless Quadrupole moment (field-independent basis, Debye-Ang):
   XX=             20.6227   YY=             -8.4187   ZZ=            -12.2040
   XY=              3.5657   XZ=             -4.8953   YZ=             -6.6262
 Octapole moment (field-independent basis, Debye-Ang**2):
  XXX=           -340.9518  YYY=             -9.2052  ZZZ=             -2.4513  XYY=            -37.2278
  XXY=            -11.1027  XXZ=             -1.4502  XZZ=            -15.8092  YZZ=            -24.2961
  YYZ=            -13.6022  XYZ=              8.4667
 Hexadecapole moment (field-independent basis, Debye-Ang**3):
 XXXX=          -4141.6994 YYYY=           -615.2049 ZZZZ=           -497.5981 XXXY=            184.3797
 XXXZ=              5.6800 YYYX=            -36.7954 YYYZ=            -44.8329 ZZZX=             -5.8743
 ZZZY=            -17.9165 XXYY=           -876.3733 XXZZ=           -840.6015 YYZZ=           -204.1362
 XXYZ=            -31.7158 YYXZ=            -33.9150 ZZXY=             -7.3126
 N-N= 9.354450672057D+02 E-N=-3.581965593036D+03  KE= 7.285404416141D+02
 D1PCM: PCM CHGder 1st derivatives, ID1Alg=3 FixD1E=F DoIter=F DoCFld=F I1PDM=6.
 Calling FoFJK, ICntrl=  10005127 FMM=F ISym2X=0 I1Cent= 0 IOpClX= 0 NMat=1 NMatS=1 NMatT=0.
 ***** Axes restored to original set *****
 -------------------------------------------------------------------
 Center     Atomic                   Forces (Hartrees/Bohr)
 Number     Number              X              Y              Z
 -------------------------------------------------------------------
      1        6          -0.000730838   -0.002516346   -0.000858980
      2        1          -0.000234128    0.000232176    0.000272535
      3        1           0.000219950    0.000741832   -0.000546440
      4        6           0.002700291    0.000626553    0.001838257
      5        1          -0.000218067    0.000414906   -0.001100440
      6        7          -0.004054870    0.002685110    0.002266407
      7        1          -0.000061432   -0.000258537   -0.000028340
      8        1           0.000076157   -0.000011529    0.000019416
      9        1          -0.000412377   -0.000022633    0.000164761
     10        6          -0.003969077   -0.003562694   -0.003696325
     11        1           0.000831659   -0.000306191    0.000760629
     12        6           0.012144472   -0.008437697   -0.004220468
     13        6          -0.014584635   -0.030892276    0.006693578
     14        1           0.000764319   -0.000421443   -0.001553380
     15        8          -0.005215870    0.009294154   -0.013292176
     16        6           0.013595590    0.006165957    0.000016008
     17        6          -0.003323110    0.001118150    0.000179911
     18        6          -0.009050058   -0.008836925    0.003592701
     19        8           0.002469047    0.001422391   -0.001888576
     20        6          -0.001644896   -0.001725170    0.000632296
     21        6           0.007597469   -0.000349418    0.004153221
     22        1          -0.000413099   -0.000276206    0.000100981
     23        1           0.002024533    0.030130520    0.011064794
     24        1          -0.000331523   -0.000014639    0.000058396
     25        6           0.001490907    0.004560198   -0.004997030
     26        1           0.000446615    0.000232982    0.000393424
     27        9          -0.000117030    0.000006776   -0.000025162
 -------------------------------------------------------------------
 Cartesian Forces:  Max     0.030892276 RMS     0.006497491

 GradGradGradGradGradGradGradGradGradGradGradGradGradGradGradGradGradGrad
 Berny optimization.
 FormGI is forming the generalized inverse of G from B-inverse, IUseBI=4.
 Internal  Forces:  Max     0.055363370 RMS     0.006222956
 Search for a local minimum.
 Step number   1 out of a maximum of  134
 All quantities printed in internal units (Hartrees-Bohrs-Radians)
 Mixed Optimization -- RFO/linear search
 Second derivative matrix not updated -- first step.
 ITU=  0
     Eigenvalues ---    0.01049   0.01059   0.01118   0.01383   0.01541
     Eigenvalues ---    0.01627   0.01781   0.01839   0.02005   0.02028
     Eigenvalues ---    0.02082   0.02100   0.02171   0.02228   0.02244
     Eigenvalues ---    0.02266   0.02269   0.02339   0.02406   0.02407
     Eigenvalues ---    0.07326   0.07345   0.07632   0.07690   0.15991
     Eigenvalues ---    0.15995   0.15999   0.16000   0.16000   0.16000
     Eigenvalues ---    0.16000   0.16000   0.16000   0.16000   0.16000
     Eigenvalues ---    0.16000   0.21711   0.22000   0.22003   0.22347
     Eigenvalues ---    0.22744   0.23508   0.24568   0.24910   0.24937
     Eigenvalues ---    0.24983   0.24991   0.25000   0.33543   0.33657
     Eigenvalues ---    0.34529   0.34574   0.34693   0.34714   0.34820
     Eigenvalues ---    0.35588   0.35622   0.35644   0.35694   0.35747
     Eigenvalues ---    0.36041   0.37384   0.38433   0.39130   0.42757
     Eigenvalues ---    0.45577   0.47469   0.47913   0.49838   0.50107
     Eigenvalues ---    0.50874   0.52755   0.55680   0.56592   0.85866
 RFO step:  Lambda=-2.11557608D-02 EMin= 1.04930342D-02
 Linear search not attempted -- first point.
 Maximum step size (   0.300) exceeded in Quadratic search.
    -- Step size scaled by   0.939
 Iteration  1 RMS(Cart)=  0.04572964 RMS(Int)=  0.00834593
 Iteration  2 RMS(Cart)=  0.01404085 RMS(Int)=  0.00064400
 Iteration  3 RMS(Cart)=  0.00062347 RMS(Int)=  0.00008198
 Iteration  4 RMS(Cart)=  0.00000057 RMS(Int)=  0.00008198
 Variable       Old X    -DE/DX   Delta X   Delta X   Delta X     New X
                                 (Linear)    (Quad)   (Total)
    R1        2.06141  -0.00038   0.00000  -0.00097  -0.00097   2.06044
    R2        2.08109  -0.00095   0.00000  -0.00250  -0.00250   2.07859
    R3        2.72753   0.00221   0.00000   0.00502   0.00502   2.73255
    R4        2.06373   0.00004   0.00000   0.00010   0.00010   2.06383
    R5        2.07913  -0.00113   0.00000  -0.00297  -0.00297   2.07616
    R6        2.73740   0.00243   0.00000   0.00563   0.00563   2.74303
    R7        2.06176   0.00001   0.00000   0.00001   0.00001   2.06177
    R8        2.06447  -0.00041   0.00000  -0.00106  -0.00106   2.06341
    R9        2.59758  -0.00384   0.00000  -0.00690  -0.00690   2.59068
   R10        2.04642   0.00031   0.00000   0.00077   0.00077   2.04719
   R11        2.60029  -0.00622   0.00000  -0.01123  -0.01123   2.58905
   R12        2.62032   0.01345   0.00000   0.02523   0.02523   2.64555
   R13        2.04730   0.00094   0.00000   0.00235   0.00235   2.04965
   R14        2.58994   0.03018   0.00000   0.05347   0.05347   2.64341
   R15        2.79268  -0.01108   0.00000  -0.02817  -0.02817   2.76451
   R16        1.81233   0.00991   0.00000   0.01610   0.01610   1.82843
   R17        2.75513   0.00227   0.00000   0.00579   0.00579   2.76092
   R18        2.62151   0.00778   0.00000   0.01496   0.01496   2.63647
   R19        2.34899   0.00307   0.00000   0.00328   0.00328   2.35226
   R20        2.73807  -0.00071   0.00000  -0.00171  -0.00171   2.73636
   R21        2.61854  -0.00714   0.00000  -0.01332  -0.01332   2.60522
   R22        2.04677  -0.00004   0.00000  -0.00010  -0.00010   2.04667
   R23        2.04480   0.00013   0.00000   0.00032   0.00032   2.04512
   R24        2.56034  -0.00258   0.00000  -0.00461  -0.00461   2.55573
   R25        2.66512   0.00513   0.00000   0.01013   0.01014   2.67526
   R26        2.04563  -0.00011   0.00000  -0.00027  -0.00027   2.04536
   R27        2.53744   0.00011   0.00000   0.00018   0.00018   2.53761
    A1        1.89393   0.00013   0.00000   0.00031   0.00031   1.89423
    A2        1.90616  -0.00031   0.00000  -0.00167  -0.00167   1.90449
    A3        1.88563   0.00003   0.00000   0.00045   0.00045   1.88608
    A4        1.95997  -0.00014   0.00000  -0.00088  -0.00088   1.95909
    A5        1.89341  -0.00014   0.00000  -0.00064  -0.00064   1.89276
    A6        1.92309   0.00044   0.00000   0.00246   0.00246   1.92555
    A7        1.95877  -0.00038   0.00000  -0.00213  -0.00213   1.95665
    A8        1.88959   0.00020   0.00000   0.00160   0.00160   1.89119
    A9        1.89461   0.00009   0.00000  -0.00044  -0.00045   1.89417
   A10        1.91405   0.00030   0.00000   0.00201   0.00202   1.91606
   A11        1.91647  -0.00024   0.00000  -0.00156  -0.00157   1.91490
   A12        1.88884   0.00006   0.00000   0.00062   0.00062   1.88947
   A13        2.01886   0.00043   0.00000   0.00213   0.00213   2.02099
   A14        2.07799  -0.00041   0.00000  -0.00103  -0.00104   2.07695
   A15        2.05071   0.00007   0.00000   0.00089   0.00089   2.05160
   A16        2.00515  -0.00088   0.00000  -0.00431  -0.00431   2.00084
   A17        2.19887   0.00030   0.00000   0.00122   0.00122   2.20008
   A18        2.07819   0.00060   0.00000   0.00338   0.00338   2.08157
   A19        2.16625   0.00001   0.00000   0.00002   0.00000   2.16625
   A20        2.09542  -0.00107   0.00000  -0.00554  -0.00556   2.08986
   A21        2.02152   0.00106   0.00000   0.00551   0.00549   2.02700
   A22        2.08688   0.00877   0.00000   0.03168   0.03146   2.11834
   A23        2.15202  -0.00464   0.00000  -0.01496  -0.01521   2.13681
   A24        2.03878  -0.00398   0.00000  -0.01271  -0.01297   2.02581
   A25        1.61781   0.05536   0.00000   0.28687   0.28687   1.90468
   A26        2.06679  -0.00451   0.00000  -0.01625  -0.01625   2.05053
   A27        2.13051   0.00376   0.00000   0.01237   0.01237   2.14287
   A28        2.08544   0.00076   0.00000   0.00403   0.00403   2.08946
   A29        2.10248  -0.00095   0.00000  -0.00353  -0.00356   2.09891
   A30        2.06065  -0.00063   0.00000  -0.00140  -0.00143   2.05923
   A31        2.11969   0.00160   0.00000   0.00529   0.00526   2.12495
   A32        2.11501  -0.00171   0.00000  -0.00566  -0.00565   2.10936
   A33        2.08189   0.00137   0.00000   0.00556   0.00556   2.08745
   A34        2.08601   0.00033   0.00000   0.00016   0.00016   2.08616
   A35        2.07726   0.00080   0.00000   0.00376   0.00375   2.08101
   A36        2.07703  -0.00102   0.00000  -0.00455  -0.00455   2.07249
   A37        2.12883   0.00022   0.00000   0.00079   0.00079   2.12963
   A38        2.08184  -0.00003   0.00000  -0.00044  -0.00043   2.08141
   A39        2.12512  -0.00057   0.00000  -0.00280  -0.00280   2.12232
   A40        2.07619   0.00060   0.00000   0.00325   0.00324   2.07944
   A41        2.14472   0.00264   0.00000   0.00819   0.00820   2.15291
   A42        2.09654  -0.00137   0.00000  -0.00426  -0.00426   2.09228
   A43        2.04192  -0.00127   0.00000  -0.00392  -0.00393   2.03799
    D1       -0.66407   0.00019   0.00000   0.00308   0.00308  -0.66099
    D2        3.02634  -0.00001   0.00000  -0.00089  -0.00089   3.02544
    D3        1.43770   0.00005   0.00000   0.00177   0.00177   1.43947
    D4       -1.15508  -0.00014   0.00000  -0.00220  -0.00220  -1.15728
    D5       -2.73269   0.00008   0.00000   0.00208   0.00208  -2.73061
    D6        0.95772  -0.00011   0.00000  -0.00189  -0.00189   0.95583
    D7       -1.14779   0.00023   0.00000   0.00231   0.00230  -1.14549
    D8        1.45387   0.00026   0.00000   0.00558   0.00558   1.45945
    D9        3.03449   0.00003   0.00000   0.00030   0.00029   3.03478
   D10       -0.64703   0.00006   0.00000   0.00357   0.00357  -0.64346
   D11        0.96113  -0.00008   0.00000  -0.00074  -0.00074   0.96039
   D12       -2.72039  -0.00005   0.00000   0.00253   0.00253  -2.71786
   D13        3.06548  -0.00025   0.00000  -0.00645  -0.00645   3.05903
   D14       -0.12437   0.00012   0.00000   0.00108   0.00107  -0.12330
   D15        0.48255  -0.00055   0.00000  -0.01087  -0.01086   0.47170
   D16       -2.70729  -0.00019   0.00000  -0.00334  -0.00334  -2.71064
   D17       -3.05907   0.00033   0.00000   0.00676   0.00673  -3.05234
   D18        0.08083  -0.00023   0.00000  -0.00510  -0.00509   0.07574
   D19        0.03244   0.00067   0.00000   0.01438   0.01437   0.04681
   D20       -3.11085   0.00011   0.00000   0.00252   0.00254  -3.10831
   D21       -0.09255   0.00113   0.00000   0.02955   0.02972  -0.06283
   D22       -3.11790  -0.00032   0.00000  -0.01186  -0.01207  -3.12996
   D23        3.05067   0.00168   0.00000   0.04097   0.04117   3.09184
   D24        0.02532   0.00022   0.00000  -0.00045  -0.00062   0.02471
   D25        1.73544   0.00095   0.00000   0.01595   0.01570   1.75114
   D26       -1.51498   0.00219   0.00000   0.05433   0.05458  -1.46041
   D27       -1.72640   0.00027   0.00000  -0.00381  -0.00413  -1.73053
   D28        1.44773   0.00004   0.00000  -0.00931  -0.00961   1.43812
   D29        1.52847  -0.00194   0.00000  -0.04694  -0.04664   1.48183
   D30       -1.58059  -0.00217   0.00000  -0.05243  -0.05212  -1.63271
   D31       -0.06186   0.00039   0.00000   0.01154   0.01154  -0.05033
   D32        3.10819  -0.00018   0.00000  -0.00292  -0.00287   3.10532
   D33        3.04806   0.00068   0.00000   0.01706   0.01701   3.06507
   D34       -0.06507   0.00010   0.00000   0.00261   0.00261  -0.06246
   D35       -3.11903  -0.00007   0.00000   0.00009   0.00012  -3.11891
   D36       -0.00256   0.00007   0.00000   0.00310   0.00313   0.00057
   D37        0.05543  -0.00021   0.00000  -0.00510  -0.00511   0.05032
   D38       -3.11129  -0.00007   0.00000  -0.00209  -0.00210  -3.11339
   D39       -3.11463   0.00004   0.00000   0.00104   0.00104  -3.11359
   D40        0.03830   0.00004   0.00000   0.00124   0.00125   0.03954
   D41        0.05572  -0.00049   0.00000  -0.01341  -0.01344   0.04228
   D42       -3.07454  -0.00049   0.00000  -0.01321  -0.01323  -3.08777
   D43       -0.01780   0.00015   0.00000   0.00347   0.00348  -0.01432
   D44        3.11542   0.00024   0.00000   0.00499   0.00499   3.12041
   D45       -3.13421  -0.00001   0.00000   0.00038   0.00039  -3.13381
   D46       -0.00099   0.00008   0.00000   0.00190   0.00190   0.00092
   D47       -0.00128  -0.00013   0.00000  -0.00310  -0.00312  -0.00440
   D48        3.13563  -0.00007   0.00000  -0.00160  -0.00162   3.13401
   D49       -3.13118  -0.00013   0.00000  -0.00291  -0.00293  -3.13411
   D50        0.00572  -0.00007   0.00000  -0.00141  -0.00142   0.00430
   D51       -0.01033   0.00005   0.00000   0.00084   0.00084  -0.00949
   D52        3.13581  -0.00001   0.00000  -0.00061  -0.00062   3.13519
   D53        3.13940  -0.00003   0.00000  -0.00061  -0.00061   3.13879
   D54        0.00235  -0.00009   0.00000  -0.00206  -0.00207   0.00029
         Item               Value     Threshold  Converged?
 Maximum Force            0.055363     0.000450     NO 
 RMS     Force            0.006223     0.000300     NO 
 Maximum Displacement     0.439010     0.001800     NO 
 RMS     Displacement     0.055705     0.001200     NO 
 Predicted change in Energy=-1.161937D-02
 GradGradGradGradGradGradGradGradGradGradGradGradGradGradGradGradGradGrad

                          Input orientation:                          
 ---------------------------------------------------------------------
 Center     Atomic      Atomic             Coordinates (Angstroms)
 Number     Number       Type             X           Y           Z
 ---------------------------------------------------------------------
      1          6           0        3.706459   -1.614577   -1.009815
      2          1           0        4.645353   -1.920222   -1.472308
      3          1           0        3.385998   -2.404212   -0.314362
      4          6           0        5.174859   -0.164820    0.319312
      5          1           0        5.300106   -0.852489    1.166938
      6          7           0        3.897123   -0.344369   -0.345627
      7          1           0        2.955430   -1.521942   -1.797295
      8          1           0        5.257136    0.857570    0.691229
      9          1           0        5.986766   -0.337134   -0.390180
     10          6           0        2.809054    0.296549    0.188017
     11          1           0        3.042086    1.200384    0.737906
     12          6           0        1.499925   -0.080832    0.043611
     13          6           0        0.411973    0.660167    0.520240
     14          1           0        1.259569   -1.000549   -0.478664
     15          8           0        0.597656    1.832740    1.260054
     16          6           0       -0.972012    0.214812    0.357844
     17          6           0       -1.743900    0.797751   -0.737114
     18          6           0       -1.575132   -0.704980    1.216153
     19          8           0       -1.241923    1.679085   -1.458717
     20          6           0       -3.100133    0.331073   -0.936122
     21          6           0       -2.874453   -1.117400    1.010548
     22          1           0       -1.009114   -1.116079    2.042968
     23          1           0        0.471489    2.596890    0.680114
     24          1           0       -3.681240    0.730102   -1.757289
     25          6           0       -3.605855   -0.583394   -0.077594
     26          1           0       -3.347680   -1.844806    1.657416
     27          9           0       -4.863984   -1.025386   -0.235690
 ---------------------------------------------------------------------
                    Distance matrix (angstroms):
                    1          2          3          4          5
     1  C    0.000000
     2  H    1.090339   0.000000
     3  H    1.099942   1.777937   0.000000
     4  C    2.454500   2.563536   2.935377   0.000000
     5  H    2.803344   2.921365   2.875048   1.098656   0.000000
     6  N    1.446004   2.076673   2.122540   1.451547   2.124711
     7  H    1.092132   1.766375   1.778448   3.353755   3.838274
     8  H    3.377819   3.573696   3.892505   1.091043   1.775514
     9  H    2.686188   2.340205   3.323033   1.091908   1.778119
    10  C    2.427456   3.323063   2.807020   2.413945   2.912716
    11  H    3.379338   4.146528   3.770763   2.566656   3.081722
    12  C    2.886325   3.946527   3.013886   3.686218   4.037163
    13  C    4.285927   5.343235   4.351070   4.837981   5.157537
    14  H    2.578066   3.646458   2.553226   4.082242   4.365302
    15  O    5.167297   6.159089   5.310876   5.081932   5.415917
    16  C    5.206270   6.281927   5.128684   6.158703   6.413519
    17  C    5.966583   6.982152   6.061942   7.064829   7.481091
    18  C    5.803233   6.884698   5.462845   6.830701   6.876996
    19  O    5.961226   6.900378   6.276983   6.909158   7.490065
    20  C    7.079596   8.083834   7.066701   8.384361   8.740005
    21  C    6.901989   7.959684   6.527213   8.134902   8.180345
    22  H    5.639558   6.706475   5.151049   6.489792   6.375199
    23  H    5.572912   6.516008   5.873191   5.466161   5.954054
    24  H    7.786805   8.742858   7.864592   9.140221   9.577070
    25  C    7.443273   8.474359   7.228931   8.799641   8.996522
    26  H    7.545066   8.584255   7.038698   8.789002   8.718341
    27  F    8.625481   9.631066   8.364781  10.090935  10.261870
                    6          7          8          9         10
     6  N    0.000000
     7  H    2.093038   0.000000
     8  H    2.090302   4.141580   0.000000
     9  H    2.090130   3.545806   1.768933   0.000000
    10  C    1.370929   2.696257   2.561459   3.291461   0.000000
[...]
 Alpha virt. eigenvalues --   -0.02682   0.03745   0.04842   0.05251   0.05343
 Alpha virt. eigenvalues --    0.06276   0.06484   0.06816   0.07953   0.07962
 Alpha virt. eigenvalues --    0.08690   0.08855   0.09328   0.10548   0.10886
 Alpha virt. eigenvalues --    0.10999   0.12328   0.13013   0.13072   0.13451
 Alpha virt. eigenvalues --    0.13761   0.14665   0.15045   0.15817   0.16085
 Alpha virt. eigenvalues --    0.16197   0.16444   0.17111   0.17140   0.17306
 Alpha virt. eigenvalues --    0.18067   0.18382   0.18911   0.18986   0.19180
 Alpha virt. eigenvalues --    0.19529   0.19743   0.20603   0.21018   0.21273
 Alpha virt. eigenvalues --    0.21662   0.21740   0.21924   0.23156   0.23351
 Alpha virt. eigenvalues --    0.24059   0.24257   0.24316   0.24528   0.25536
 Alpha virt. eigenvalues --    0.25924   0.26557   0.26901   0.27076   0.27151
 Alpha virt. eigenvalues --    0.27650   0.28115   0.28183   0.29376   0.29699
 Alpha virt. eigenvalues --    0.30134   0.30921   0.32076   0.32696   0.32923
 Alpha virt. eigenvalues --    0.33304   0.34068   0.34243   0.35381   0.35620
 Alpha virt. eigenvalues --    0.36099   0.36353   0.36813   0.37699   0.38142
 Alpha virt. eigenvalues --    0.38214   0.38444   0.38832   0.39549   0.40259
 Alpha virt. eigenvalues --    0.41497   0.42291   0.42571   0.42581   0.42959
 Alpha virt. eigenvalues --    0.44089   0.44538   0.45051   0.45816   0.47116
 Alpha virt. eigenvalues --    0.48417   0.49054   0.50331   0.51183   0.51563
 Alpha virt. eigenvalues --    0.52212   0.52903   0.53947   0.54796   0.55773
 Alpha virt. eigenvalues --    0.57957   0.58610   0.59630   0.60774   0.62163
 Alpha virt. eigenvalues --    0.63310   0.64297   0.65387   0.65853   0.65977
 Alpha virt. eigenvalues --    0.66844   0.68062   0.68323   0.69252   0.69761
 Alpha virt. eigenvalues --    0.69810   0.70934   0.71060   0.71808   0.72270
 Alpha virt. eigenvalues --    0.72847   0.73929   0.74589   0.76131   0.76534
 Alpha virt. eigenvalues --    0.77521   0.79113   0.79167   0.79834   0.80425
 Alpha virt. eigenvalues --    0.81368   0.83442   0.84931   0.85579   0.88047
 Alpha virt. eigenvalues --    0.88469   0.89441   0.90298   0.93897   0.94128
 Alpha virt. eigenvalues --    0.94768   0.96254   0.96643   0.97680   0.98757
 Alpha virt. eigenvalues --    0.99580   1.01477   1.02160   1.04142   1.04648
 Alpha virt. eigenvalues --    1.04940   1.06211   1.06897   1.07080   1.09306
 Alpha virt. eigenvalues --    1.11345   1.12020   1.12609   1.12668   1.14529
 Alpha virt. eigenvalues --    1.15565   1.17377   1.17536   1.18763   1.18828
 Alpha virt. eigenvalues --    1.20311   1.23245   1.25188   1.29142   1.30208
 Alpha virt. eigenvalues --    1.30671   1.32805   1.33147   1.36184   1.37819
 Alpha virt. eigenvalues --    1.39003   1.43456   1.44077   1.46321   1.50530
 Alpha virt. eigenvalues --    1.50619   1.51238   1.52034   1.52418   1.53882
 Alpha virt. eigenvalues --    1.55303   1.56592   1.57749   1.58122   1.60929
 Alpha virt. eigenvalues --    1.61577   1.62962   1.63205   1.63357   1.64222
 Alpha virt. eigenvalues --    1.64592   1.66814   1.67432   1.68707   1.68824
 Alpha virt. eigenvalues --    1.69289   1.71317   1.74197   1.76072   1.76774
 Alpha virt. eigenvalues --    1.77872   1.79922   1.80941   1.81192   1.83195
 Alpha virt. eigenvalues --    1.83400   1.84761   1.86197   1.86699   1.90117
 Alpha virt. eigenvalues --    1.91946   1.93838   1.95496   1.95927   1.97083
 Alpha virt. eigenvalues --    1.99705   2.00000   2.03863   2.04140   2.05609
 Alpha virt. eigenvalues --    2.06337   2.07331   2.07614   2.09954   2.10235
 Alpha virt. eigenvalues --    2.11911   2.12681   2.15523   2.16732   2.17780
 Alpha virt. eigenvalues --    2.19625   2.21765   2.23516   2.24427   2.25396
 Alpha virt. eigenvalues --    2.30941   2.30985   2.33163   2.36346   2.38562
 Alpha virt. eigenvalues --    2.39536   2.41875   2.45926   2.47296   2.47562
 Alpha virt. eigenvalues --    2.50875   2.54072   2.55476   2.56608   2.59128
 Alpha virt. eigenvalues --    2.59385   2.63333   2.63870   2.65141   2.67737
 Alpha virt. eigenvalues --    2.70635   2.71307   2.71412   2.72799   2.76077
 Alpha virt. eigenvalues --    2.76606   2.77600   2.79993   2.81936   2.82803
 Alpha virt. eigenvalues --    2.83543   2.84630   2.84806   2.84975   2.88181
 Alpha virt. eigenvalues --    2.88603   2.91463   2.92928   2.93337   2.95900
 Alpha virt. eigenvalues --    2.96214   2.98948   3.00109   3.04078   3.06028
 Alpha virt. eigenvalues --    3.09586   3.13154   3.16449   3.16813   3.19457
 Alpha virt. eigenvalues --    3.19466   3.21154   3.23582   3.26726   3.28877
 Alpha virt. eigenvalues --    3.31254   3.34651   3.39220   3.41927   3.43649
 Alpha virt. eigenvalues --    3.51286   3.52339   3.57460   3.60168   3.65867
 Alpha virt. eigenvalues --    3.68215   3.71173   3.73440   3.75475   3.80919
 Alpha virt. eigenvalues --    3.82352   3.83310   3.85939   3.87016   3.87650
 Alpha virt. eigenvalues --    3.94147   3.95127   3.95637   4.01309   4.06725
 Alpha virt. eigenvalues --    4.08193   4.10839   4.16771   4.21235   4.28841
 Alpha virt. eigenvalues --    4.33237   4.36560   4.66275   4.90309   4.96272
 Alpha virt. eigenvalues --    4.97932   5.10941   5.17331   5.19608   5.39469
 Alpha virt. eigenvalues --    5.61250   5.88287   5.92007   6.43021   6.55754
 Alpha virt. eigenvalues --    6.85432  23.71637  23.89149  24.00644  24.04326
 Alpha virt. eigenvalues --   24.05979  24.06546  24.08295  24.13542  24.21397
 Alpha virt. eigenvalues --   24.22583  24.29490  35.69164  50.09681  50.20734
 Alpha virt. eigenvalues --   66.94140
          Condensed to atoms (all electrons):
               1          2          3          4          5          6
     1  C    5.245842   0.384284   0.414317  -0.065236   0.001264   0.236484
     2  H    0.384284   0.439478  -0.015403   0.003321  -0.005105  -0.043734
     3  H    0.414317  -0.015403   0.513830  -0.000382  -0.001157  -0.036541
     4  C   -0.065236   0.003321  -0.000382   5.193880   0.404045   0.254451
     5  H    0.001264  -0.005105  -0.001157   0.404045   0.526264  -0.039751
     6  N    0.236484  -0.043734  -0.036541   0.254451  -0.039751   6.749283
     7  H    0.413863  -0.016021  -0.054223   0.000819   0.002271  -0.035626
     8  H   -0.003422   0.003144  -0.001558   0.400932  -0.027194  -0.101024
     9  H   -0.000521  -0.005123   0.002377   0.404379  -0.057885  -0.039414
    10  C   -0.040444   0.020890   0.013001  -0.193535  -0.025742   0.243696
    11  H    0.006937  -0.000385  -0.000118  -0.037973   0.003155  -0.048212
    12  C    0.110938   0.023106  -0.024910  -0.031321   0.010273  -0.189716
    13  C   -0.101840  -0.013273  -0.003921  -0.025960   0.001307  -0.023089
    14  H    0.000570   0.000394  -0.000453  -0.007591   0.000924  -0.035048
    15  O    0.001770   0.000184   0.000390   0.000668   0.000087   0.000873
    16  C   -0.135847  -0.002405  -0.007389   0.032902   0.000491  -0.030539
    17  C   -0.006299   0.000873  -0.001946   0.007249  -0.000091  -0.001360
    18  C    0.003973  -0.005856  -0.000047  -0.012633   0.000503  -0.001664
    19  O    0.000075  -0.000001   0.000016   0.000387   0.000008  -0.000109
    20  C    0.008752   0.000422  -0.000848  -0.000339   0.000007   0.000617
    21  C    0.002644   0.000014   0.001729   0.000202   0.000013  -0.000073
    22  H    0.007304   0.000384  -0.002602  -0.001781  -0.000081  -0.005159
    23  H   -0.000585  -0.000122  -0.000049   0.000225   0.000038  -0.000011
    24  H    0.000052   0.000003  -0.000013   0.000022   0.000001  -0.000019
    25  C   -0.002133  -0.000152   0.000172  -0.000101   0.000005  -0.000528
    26  H   -0.000797  -0.000048   0.000067   0.000092   0.000003   0.000181
    27  F    0.000006   0.000000   0.000001   0.000000   0.000000   0.000000
               7          8          9         10         11         12
     1  C    0.413863  -0.003422  -0.000521  -0.040444   0.006937   0.110938
     2  H   -0.016021   0.003144  -0.005123   0.020890  -0.000385   0.023106
     3  H   -0.054223  -0.001558   0.002377   0.013001  -0.000118  -0.024910
     4  C    0.000819   0.400932   0.404379  -0.193535  -0.037973  -0.031321
     5  H    0.002271  -0.027194  -0.057885  -0.025742   0.003155   0.010273
     6  N   -0.035626  -0.101024  -0.039414   0.243696  -0.048212  -0.189716
     7  H    0.515955  -0.001720  -0.001202   0.017787   0.000303  -0.028195
     8  H   -0.001720   0.527836  -0.026754   0.057526  -0.013684   0.011450
     9  H   -0.001202  -0.026754   0.526305  -0.024435   0.002885   0.010580
    10  C    0.017787   0.057526  -0.024435  10.568675   0.341824   0.409702
    11  H    0.000303  -0.013684   0.002885   0.341824   0.437370   0.078031
    12  C   -0.028195   0.011450   0.010580   0.409702   0.078031   9.495496
    13  C   -0.006989   0.014244   0.001367  -2.220612   0.023463   1.466935
    14  H    0.000762  -0.003009   0.000881   0.101523   0.005937   0.528093
    15  O    0.000427  -0.000423   0.000091  -0.102423  -0.003509  -0.387842
    16  C   -0.008256   0.003382   0.000612  -1.329117  -0.068459  -2.273466
    17  C   -0.001988   0.001309  -0.000089  -0.266863  -0.023792  -2.004956
    18  C   -0.000651  -0.003424   0.000485  -1.974874   0.020959  -0.778894
    19  O    0.000015  -0.000156   0.000008   0.020499   0.001362   0.022407
    20  C   -0.000827  -0.000220   0.000004   0.003238   0.009597   0.550138
    21  C    0.001818  -0.000207   0.000009   0.071948  -0.000040  -0.218569
    22  H   -0.002879   0.000380  -0.000085  -0.150499   0.000996  -0.026524
    23  H   -0.000065   0.000080   0.000043  -0.024948   0.002367   0.054346
    24  H   -0.000013  -0.000004   0.000001  -0.000855  -0.000039  -0.005742
    25  C    0.000146  -0.000020   0.000005  -0.124122  -0.000750  -0.312205
    26  H    0.000070   0.000001   0.000003   0.006681  -0.000239  -0.009016
    27  F    0.000001   0.000000   0.000000   0.000300   0.000011   0.002061
              13         14         15         16         17         18
     1  C   -0.101840   0.000570   0.001770  -0.135847  -0.006299   0.003973
     2  H   -0.013273   0.000394   0.000184  -0.002405   0.000873  -0.005856
     3  H   -0.003921  -0.000453   0.000390  -0.007389  -0.001946  -0.000047
     4  C   -0.025960  -0.007591   0.000668   0.032902   0.007249  -0.012633
     5  H    0.001307   0.000924   0.000087   0.000491  -0.000091   0.000503
     6  N   -0.023089  -0.035048   0.000873  -0.030539  -0.001360  -0.001664
     7  H   -0.006989   0.000762   0.000427  -0.008256  -0.001988  -0.000651
     8  H    0.014244  -0.003009  -0.000423   0.003382   0.001309  -0.003424
     9  H    0.001367   0.000881   0.000091   0.000612  -0.000089   0.000485
    10  C   -2.220612   0.101523  -0.102423  -1.329117  -0.266863  -1.974874
    11  H    0.023463   0.005937  -0.003509  -0.068459  -0.023792   0.020959
    12  C    1.466935   0.528093  -0.387842  -2.273466  -2.004956  -0.778894
    13  C    8.294688  -0.033544   0.546745   1.058819  -2.308903  -0.102839
    14  H   -0.033544   0.568563  -0.018903  -0.118319  -0.012781  -0.066139
    15  O    0.546745  -0.018903   8.115423   0.095831  -0.067096  -0.026590
    16  C    1.058819  -0.118319   0.095831  15.674666   0.005202  -3.548053
    17  C   -2.308903  -0.012781  -0.067096   0.005202  15.734586  -4.111024
    18  C   -0.102839  -0.066139  -0.026590  -3.548053  -4.111024  15.237965
    19  O   -0.018934   0.001515   0.003947  -0.128203   0.424132  -0.008415
    20  C   -0.001821  -0.003175  -0.064661  -3.170135  -1.749307   1.449792
    21  C   -0.199309  -0.042806   0.014898  -0.767503   0.448704   0.591867
    22  H   -0.005027  -0.023718   0.001696  -0.207032  -0.007181   0.716361
    23  H    0.019894   0.001073   0.211241  -0.135800  -0.041153   0.071134
    24  H   -0.006912  -0.000738  -0.001002  -0.076509  -0.039732   0.023258
    25  C   -0.363304  -0.020437  -0.001494  -0.766320   0.149825   0.281652
    26  H    0.004186   0.005122   0.000497   0.113367   0.052834  -0.054652
    27  F   -0.001634  -0.000318  -0.000008  -0.001211  -0.065799  -0.048296
              19         20         21         22         23         24
     1  C    0.000075   0.008752   0.002644   0.007304  -0.000585   0.000052
     2  H   -0.000001   0.000422   0.000014   0.000384  -0.000122   0.000003
     3  H    0.000016  -0.000848   0.001729  -0.002602  -0.000049  -0.000013
     4  C    0.000387  -0.000339   0.000202  -0.001781   0.000225   0.000022
     5  H    0.000008   0.000007   0.000013  -0.000081   0.000038   0.000001
     6  N   -0.000109   0.000617  -0.000073  -0.005159  -0.000011  -0.000019
     7  H    0.000015  -0.000827   0.001818  -0.002879  -0.000065  -0.000013
     8  H   -0.000156  -0.000220  -0.000207   0.000380   0.000080  -0.000004
     9  H    0.000008   0.000004   0.000009  -0.000085   0.000043   0.000001
    10  C    0.020499   0.003238   0.071948  -0.150499  -0.024948  -0.000855
    11  H    0.001362   0.009597  -0.000040   0.000996   0.002367  -0.000039
    12  C    0.022407   0.550138  -0.218569  -0.026524   0.054346  -0.005742
    13  C   -0.018934  -0.001821  -0.199309  -0.005027   0.019894  -0.006912
    14  H    0.001515  -0.003175  -0.042806  -0.023718   0.001073  -0.000738
    15  O    0.003947  -0.064661   0.014898   0.001696   0.211241  -0.001002
    16  C   -0.128203  -3.170135  -0.767503  -0.207032  -0.135800  -0.076509
    17  C    0.424132  -1.749307   0.448704  -0.007181  -0.041153  -0.039732
    18  C   -0.008415   1.449792   0.591867   0.716361   0.071134   0.023258
    19  O    8.436360  -0.284659  -0.013999  -0.002656   0.068695  -0.011142
    20  C   -0.284659  12.128890  -2.590390   0.127179   0.055071   0.671077
    21  C   -0.013999  -2.590390   8.968674  -0.129762   0.007249  -0.076597
    22  H   -0.002656   0.127179  -0.129762   0.539154   0.001870   0.003389
    23  H    0.068695   0.055071   0.007249   0.001870   0.303187   0.000086
    24  H   -0.011142   0.671077  -0.076597   0.003389   0.000086   0.448037
    25  C   -0.007079  -0.670473   0.023033   0.067591   0.001298  -0.162095
    26  H    0.000017  -0.134055   0.529612  -0.027062   0.000250  -0.002039
    27  F   -0.000653  -0.219144  -0.211570   0.002813  -0.000048  -0.020185
              25         26         27
     1  C   -0.002133  -0.000797   0.000006
     2  H   -0.000152  -0.000048   0.000000
     3  H    0.000172   0.000067   0.000001
     4  C   -0.000101   0.000092   0.000000
     5  H    0.000005   0.000003   0.000000
     6  N   -0.000528   0.000181   0.000000
     7  H    0.000146   0.000070   0.000001
     8  H   -0.000020   0.000001   0.000000
     9  H    0.000005   0.000003   0.000000
    10  C   -0.124122   0.006681   0.000300
    11  H   -0.000750  -0.000239   0.000011
    12  C   -0.312205  -0.009016   0.002061
    13  C   -0.363304   0.004186  -0.001634
    14  H   -0.020437   0.005122  -0.000318
    15  O   -0.001494   0.000497  -0.000008
    16  C   -0.766320   0.113367  -0.001211
    17  C    0.149825   0.052834  -0.065799
    18  C    0.281652  -0.054652  -0.048296
    19  O   -0.007079   0.000017  -0.000653
    20  C   -0.670473  -0.134055  -0.219144
    21  C    0.023033   0.529612  -0.211570
    22  H    0.067591  -0.027062   0.002813
    23  H    0.001298   0.000250  -0.000048
    24  H   -0.162095  -0.002039  -0.020185
    25  C    8.166662  -0.186215   0.597249
    26  H   -0.186215   0.455524  -0.024387
    27  F    0.597249  -0.024387   9.158138
 Mulliken charges:
               1
     1  C   -0.481953
     2  H    0.231132
     3  H    0.205660
     4  C   -0.326720
     5  H    0.206347
     6  N    0.146032
     7  H    0.204419
     8  H    0.162535
     9  H    0.205474
    10  C    0.601179
    11  H    0.262004
    12  C   -0.482202
    13  C    0.006260
    14  H    0.171622
    15  O   -0.320819
    16  C    1.789291
    17  C   -0.114352
    18  C   -1.653897
    19  O   -0.503437
    20  C   -0.114729
    21  C   -0.411590
    22  H    0.122932
    23  H    0.404633
    24  H    0.257712
    25  C   -0.670209
    26  H    0.270000
    27  F   -0.167324
 Sum of Mulliken charges =   0.00000
 Mulliken charges with hydrogens summed into heavy atoms:
               1
     1  C    0.159258
     4  C    0.247636
     6  N    0.146032
    10  C    0.863183
    12  C   -0.310580
    13  C    0.006260
    15  O    0.083814
    16  C    1.789291
    17  C   -0.114352
    18  C   -1.530965
    19  O   -0.503437
    20  C    0.142983
    21  C   -0.141589
    25  C   -0.670209
    27  F   -0.167324
 Electronic spatial extent (au):  <R**2>=           4744.1250
 Charge=              0.0000 electrons
 Dipole moment (field-independent basis, Debye):
    X=            -13.6262    Y=             -5.6019    Z=             -0.0079  Tot=             14.7328
 Quadrupole moment (field-independent basis, Debye-Ang):
   XX=            -63.7481   YY=            -91.6385   ZZ=            -91.2207
   XY=              0.6719   XZ=              0.0120   YZ=             -0.0181
 Traceless Quadrupole moment (field-independent basis, Debye-Ang):
   XX=             18.4543   YY=             -9.4361   ZZ=             -9.0182
   XY=              0.6719   XZ=              0.0120   YZ=             -0.0181
 Octapole moment (field-independent basis, Debye-Ang**2):
  XXX=           -276.2800  YYY=            -45.3675  ZZZ=             -0.0202  XYY=            -38.4806
  XXY=             -7.2379  XXZ=             -0.0542  XZZ=             -2.4102  YZZ=              0.9570
  YYZ=             -0.0160  XYZ=              0.0549
 Hexadecapole moment (field-independent basis, Debye-Ang**3):
 XXXX=          -4289.9551 YYYY=           -983.3696 ZZZZ=           -110.4173 XXXY=            142.5132
 XXXZ=              0.0684 YYYX=            -80.0487 YYYZ=             -0.0657 ZZZX=              0.1860
 ZZZY=              0.0063 XXYY=           -962.5750 XXZZ=           -859.2857 YYZZ=           -183.6542
 XXYZ=             -0.3620 YYXZ=             -0.2175 ZZXY=             -3.1503
 N-N= 9.369291370820D+02 E-N=-3.584705113514D+03  KE= 7.284198675831D+02
 1\1\GINC-SM4\FOpt\RwB97XD TD-FC\6-311++G(d,p)\C11H12F1N1O2\CA12053\03-
 Feb-2017\0\\# wb97xd 6-311++g** opt td=(nstates=1,root=1) SCRF=(PCM,so
 lvent=dichloromethane)\\restart\\0,1\C,3.7788797869,-1.9929374993,0.04
 14295816\H,4.7701703615,-2.4421159502,0.0340991376\H,3.2489268136,-2.3
 265490218,0.9401181648\C,5.2524390854,0.0044130541,0.0259961269\H,5.79
 56766531,-0.312459908,0.9215807518\N,3.9112127133,-0.54965881,0.027622
 9293\H,3.229398469,-2.3409419514,-0.8396966919\H,5.2008269976,1.091896
 1611,0.0110032993\H,5.8028516921,-0.3366946389,-0.8560420604\C,2.83461
 25557,0.2451036634,0.0237333682\H,3.0357504086,1.3099383374,0.01368006
 52\C,1.5169663994,-0.1932292602,0.031150325\C,0.4312688714,0.710993173
 8,0.0238879363\H,1.3092965756,-1.252883206,0.0427911403\O,0.7470935778
 ,2.0207900602,0.0092117089\C,-0.9417220667,0.285196585,0.0311306319\C,
 -2.0216724036,1.3053886183,0.0209856094\C,-1.3282110499,-1.0657839844,
 0.0475735097\O,-1.7252173634,2.5348416708,0.0061769132\C,-3.376108241,
 0.8737571886,0.0281230351\C,-2.6695896378,-1.4501500112,0.0540861099\H
 ,-0.5840722576,-1.8504064736,0.0557041896\H,-0.112707032,2.5124075983,
 0.0048258062\H,-4.1600014609,1.6205118242,0.020594931\C,-3.6611343724,
 -0.4719402287,0.0441956825\H,-2.9458319875,-2.497124538,0.0668046677\F
 ,-4.9535457572,-0.8684314045,0.0508030881\\Version=ES64L-G09RevD.01\St
 ate=1-A\HF=-731.3918063\RMSD=6.326e-09\RMSF=6.474e-06\Dipole=4.3393617
 ,-2.4785621,0.020257\PG=C01 [X(C11H12F1N1O2)]\\@


 TO BEHOLD HARMS OF OUR OWN HANDS DOING,
 WHERE NONE BESIDE US WROUGHT,
 CAUSES SHARP RUING...

                                         SOPHOCLES
 Job cpu time:       6 days 19 hours 31 minutes 57.3 seconds.
 File lengths (MBytes):  RWF=    271 Int=      0 D2E=      0 Chk=     26 Scr=      1
 Normal termination of Gaussian 09 at Fri Feb  3 07:02:05 2017.
