 Entering Gaussian System, Link 0=g09
 Input=2_opt_DCM.com
 Output=2_opt_DCM.out
 Initial command:
 /share/apps/gaussian/g09_D01/g09/l1.exe "/tmp/3820182.1.serial.q/Gau-25710.inp" -scrdir="/tmp/3820182.1.serial.q/"
 Entering Link 1 = /share/apps/gaussian/g09_D01/g09/l1.exe PID=     25711.
  
 Copyright (c) 1988,1990,1992,1993,1995,1998,2003,2009,2013,
            Gaussian, Inc.  All Rights Reserved.
  
 This is part of the Gaussian(R) 09 program.  It is based on
 the Gaussian(R) 03 system (copyright 2003, Gaussian, Inc.),
 the Gaussian(R) 98 system (copyright 1998, Gaussian, Inc.),
 the Gaussian(R) 94 system (copyright 1995, Gaussian, Inc.),
 the Gaussian 92(TM) system (copyright 1992, Gaussian, Inc.),
 the Gaussian 90(TM) system (copyright 1990, Gaussian, Inc.),
 the Gaussian 88(TM) system (copyright 1988, Gaussian, Inc.),
 the Gaussian 86(TM) system (copyright 1986, Carnegie Mellon
 University), and the Gaussian 82(TM) system (copyright 1983,
 Carnegie Mellon University). Gaussian is a federally registered
 trademark of Gaussian, Inc.
  
 This software contains proprietary and confidential information,
 including trade secrets, belonging to Gaussian, Inc.
  
 This software is provided under written license and may be
 used, copied, transmitted, or stored only in accord with that
 written license.
  
 The following legend is applicable only to US Government
 contracts under FAR:
  
                    RESTRICTED RIGHTS LEGEND
  
 Use, reproduction and disclosure by the US Government is
 subject to restrictions as set forth in subparagraphs (a)
 and (c) of the Commercial Computer Software - Restricted
 Rights clause in FAR 52.227-19.
  
 Gaussian, Inc.
 340 Quinnipiac St., Bldg. 40, Wallingford CT 06492
  
  
 ---------------------------------------------------------------
 Warning -- This program may not be used in any manner that
 competes with the business of Gaussian, Inc. or will provide
 assistance to any competitor of Gaussian, Inc.  The licensee
 of this program is prohibited from giving any competitor of
 Gaussian, Inc. access to this program.  By using this program,
 the user acknowledges that Gaussian, Inc. is engaged in the
 business of creating and licensing software in the field of
 computational chemistry and represents and warrants to the
 licensee that it is not a competitor of Gaussian, Inc. and that
 it will not use this program in any manner prohibited above.
 ---------------------------------------------------------------
  

 Cite this work as:
 Gaussian 09, Revision D.01,
 M. J. Frisch, G. W. Trucks, H. B. Schlegel, G. E. Scuseria, 
 M. A. Robb, J. R. Cheeseman, G. Scalmani, V. Barone, B. Mennucci, 
 G. A. Petersson, H. Nakatsuji, M. Caricato, X. Li, H. P. Hratchian, 
 A. F. Izmaylov, J. Bloino, G. Zheng, J. L. Sonnenberg, M. Hada, 
 M. Ehara, K. Toyota, R. Fukuda, J. Hasegawa, M. Ishida, T. Nakajima, 
 Y. Honda, O. Kitao, H. Nakai, T. Vreven, J. A. Montgomery, Jr., 
 J. E. Peralta, F. Ogliaro, M. Bearpark, J. J. Heyd, E. Brothers, 
 K. N. Kudin, V. N. Staroverov, T. Keith, R. Kobayashi, J. Normand, 
 K. Raghavachari, A. Rendell, J. C. Burant, S. S. Iyengar, J. Tomasi, 
 M. Cossi, N. Rega, J. M. Millam, M. Klene, J. E. Knox, J. B. Cross, 
 V. Bakken, C. Adamo, J. Jaramillo, R. Gomperts, R. E. Stratmann, 
 O. Yazyev, A. J. Austin, R. Cammi, C. Pomelli, J. W. Ochterski, 
 R. L. Martin, K. Morokuma, V. G. Zakrzewski, G. A. Voth, 
 P. Salvador, J. J. Dannenberg, S. Dapprich, A. D. Daniels, 
 O. Farkas, J. B. Foresman, J. V. Ortiz, J. Cioslowski, 
 and D. J. Fox, Gaussian, Inc., Wallingford CT, 2013.
 
 ******************************************
 Gaussian 09:  ES64L-G09RevD.01 24-Apr-2013
                18-Oct-2016 
 ******************************************
 %chk=2_opt_DCM.chk
 %mem=2GB
 %nproc=4
 Will use up to    4 processors via shared memory.
 ----------------------------------------------------------------------
 # wb97xd 6-311++g** opt geom=allcheck SCRF=(PCM,solvent=dichloromethan
 e)
 ----------------------------------------------------------------------
 1/14=-1,18=20,19=15,26=3,29=7,38=1/1,3;
 2/9=110,12=2,40=1/2;
 3/5=4,6=6,7=1111,11=2,14=-4,16=1,25=1,30=1,70=2201,71=1,72=9,74=-58/1,2,3;
 4//1;
 5/5=2,38=5,53=9/2;
 6/7=2,8=2,9=2,10=2,28=1/1;
 7//1,2,3,16;
 1/14=-1,18=20,19=15,26=3/3(2);
 2/9=110/2;
 99//99;
 2/9=110/2;
 3/5=4,6=6,7=1111,11=2,14=-2,16=1,25=1,30=1,70=2205,71=1,72=9,74=-58/1,2,3;
 4/5=5,16=3,69=1/1;
 5/5=2,38=5,53=9/2;
 7//1,2,3,16;
 1/14=-1,18=20,19=15,26=3/3(-5);
 2/9=110/2;
 6/7=2,8=2,9=2,10=2,19=2,28=1/1;
 99/9=1/99;
 Structure from the checkpoint file:  "2_opt_DCM.chk"
 -----------
 Geom Opt s0
 -----------
 Charge =  0 Multiplicity = 1
 Redundant internal coordinates found in file.
 C,0,3.7266485172,1.6277809907,0.0376344289
 H,0,4.7737856434,1.9076997782,0.1501102316
 H,0,3.3478528752,2.0525767308,-0.8996565763
 C,0,4.8253564827,-0.595220565,-0.1063923831
 H,0,5.2848231482,-0.4287285735,-1.0872336936
 N,0,3.6120839764,0.1841574562,0.0468783356
 H,0,3.1620560451,2.0602225648,0.8689532584
 H,0,4.5922592067,-1.6552873492,-0.0094031935
 H,0,5.5500582378,-0.329155157,0.6681892801
 C,0,2.4031579597,-0.3981234585,0.0249725668
 H,0,2.4056903002,-1.4841178447,0.0123012877
 C,0,1.1934710181,0.2264041966,0.025742264
 C,0,-0.0015413281,-0.5938201947,0.0267817468
 H,0,1.121708737,1.3029697936,0.015659222
 O,0,0.0796515435,-1.8360618819,0.0391813439
 C,0,-1.3446562638,0.0378898108,0.0068298624
 C,0,-2.4971880587,-0.7885781748,-0.0040097628
 C,0,-1.534337867,1.4271041355,-0.0007742217
 O,0,-2.4279813372,-2.1164242468,0.0030864417
 C,0,-3.7734464218,-0.2152510898,-0.0230397273
 C,0,-2.7879276688,2.0037034401,-0.0190062524
 H,0,-0.6758912015,2.0856591159,0.008232096
 H,0,-1.4646649445,-2.341988323,0.0191141289
 H,0,-4.6480181865,-0.8521694558,-0.0313154137
 C,0,-3.8868668376,1.1529415298,-0.0299738941
 H,0,-2.9279928576,3.0763310409,-0.0245543261
 F,0,-5.1149343582,1.6962474508,-0.0477706004
 Recover connectivity data from disk.

 GradGradGradGradGradGradGradGradGradGradGradGradGradGradGradGradGradGrad
 Berny optimization.
 Initialization pass.
                           ----------------------------
                           !    Initial Parameters    !
                           ! (Angstroms and Degrees)  !
 --------------------------                            --------------------------
 ! Name  Definition              Value          Derivative Info.                !
 --------------------------------------------------------------------------------
 ! R1    R(1,2)                  1.0897         estimate D2E/DX2                !
 ! R2    R(1,3)                  1.0966         estimate D2E/DX2                !
 ! R3    R(1,6)                  1.4482         estimate D2E/DX2                !
 ! R4    R(1,7)                  1.094          estimate D2E/DX2                !
 ! R5    R(4,5)                  1.0958         estimate D2E/DX2                !
 ! R6    R(4,6)                  1.4502         estimate D2E/DX2                !
 ! R7    R(4,8)                  1.0897         estimate D2E/DX2                !
 ! R8    R(4,9)                  1.0936         estimate D2E/DX2                !
 ! R9    R(6,10)                 1.342          estimate D2E/DX2                !
 ! R10   R(10,11)                1.0861         estimate D2E/DX2                !
 ! R11   R(10,12)                1.3614         estimate D2E/DX2                !
 ! R12   R(12,13)                1.4494         estimate D2E/DX2                !
 ! R13   R(12,14)                1.079          estimate D2E/DX2                !
 ! R14   R(13,15)                1.245          estimate D2E/DX2                !
 ! R15   R(13,16)                1.4844         estimate D2E/DX2                !
 ! R16   R(16,17)                1.4183         estimate D2E/DX2                !
 ! R17   R(16,18)                1.4021         estimate D2E/DX2                !
 ! R18   R(17,19)                1.3297         estimate D2E/DX2                !
 ! R19   R(17,20)                1.3993         estimate D2E/DX2                !
 ! R20   R(18,21)                1.38           estimate D2E/DX2                !
 ! R21   R(18,22)                1.082          estimate D2E/DX2                !
 ! R22   R(19,23)                0.9895         estimate D2E/DX2                !
 ! R23   R(20,24)                1.0819         estimate D2E/DX2                !
 ! R24   R(20,25)                1.3729         estimate D2E/DX2                !
 ! R25   R(21,25)                1.3898         estimate D2E/DX2                !
 ! R26   R(21,26)                1.0817         estimate D2E/DX2                !
 ! R27   R(25,27)                1.343          estimate D2E/DX2                !
 ! A1    A(2,1,3)              108.7024         estimate D2E/DX2                !
 ! A2    A(2,1,6)              109.3549         estimate D2E/DX2                !
 ! A3    A(2,1,7)              108.4175         estimate D2E/DX2                !
 ! A4    A(3,1,6)              111.3642         estimate D2E/DX2                !
 ! A5    A(3,1,7)              108.5487         estimate D2E/DX2                !
 ! A6    A(6,1,7)              110.3869         estimate D2E/DX2                !
 ! A7    A(5,4,6)              111.3299         estimate D2E/DX2                !
 ! A8    A(5,4,8)              108.4904         estimate D2E/DX2                !
 ! A9    A(5,4,9)              108.6112         estimate D2E/DX2                !
 ! A10   A(6,4,8)              109.5391         estimate D2E/DX2                !
 ! A11   A(6,4,9)              110.4146         estimate D2E/DX2                !
 ! A12   A(8,4,9)              108.384          estimate D2E/DX2                !
 ! A13   A(1,6,4)              117.9621         estimate D2E/DX2                !
 ! A14   A(1,6,10)             120.2432         estimate D2E/DX2                !
 ! A15   A(4,6,10)             121.2491         estimate D2E/DX2                !
 ! A16   A(6,10,11)            115.5908         estimate D2E/DX2                !
 ! A17   A(6,10,12)            126.9697         estimate D2E/DX2                !
 ! A18   A(11,10,12)           117.438          estimate D2E/DX2                !
 ! A19   A(10,12,13)           118.2293         estimate D2E/DX2                !
 ! A20   A(10,12,14)           121.1178         estimate D2E/DX2                !
 ! A21   A(13,12,14)           120.65           estimate D2E/DX2                !
 ! A22   A(12,13,15)           120.7239         estimate D2E/DX2                !
 ! A23   A(12,13,16)           120.3426         estimate D2E/DX2                !
 ! A24   A(15,13,16)           118.933          estimate D2E/DX2                !
 ! A25   A(13,16,17)           119.1699         estimate D2E/DX2                !
 ! A26   A(13,16,18)           122.9652         estimate D2E/DX2                !
 ! A27   A(17,16,18)           117.8649         estimate D2E/DX2                !
 ! A28   A(16,17,19)           122.656          estimate D2E/DX2                !
 ! A29   A(16,17,20)           120.1681         estimate D2E/DX2                !
 ! A30   A(19,17,20)           117.1759         estimate D2E/DX2                !
 ! A31   A(16,18,21)           122.4766         estimate D2E/DX2                !
 ! A32   A(16,18,22)           119.7139         estimate D2E/DX2                !
 ! A33   A(21,18,22)           117.8095         estimate D2E/DX2                !
 ! A34   A(17,19,23)           106.1649         estimate D2E/DX2                !
 ! A35   A(17,20,24)           119.7476         estimate D2E/DX2                !
 ! A36   A(17,20,25)           118.9308         estimate D2E/DX2                !
 ! A37   A(24,20,25)           121.3215         estimate D2E/DX2                !
 ! A38   A(18,21,25)           117.5569         estimate D2E/DX2                !
 ! A39   A(18,21,26)           122.1411         estimate D2E/DX2                !
 ! A40   A(25,21,26)           120.302          estimate D2E/DX2                !
 ! A41   A(20,25,21)           123.0026         estimate D2E/DX2                !
 ! A42   A(20,25,27)           118.605          estimate D2E/DX2                !
 ! A43   A(21,25,27)           118.3923         estimate D2E/DX2                !
 ! D1    D(2,1,6,4)            -13.4783         estimate D2E/DX2                !
 ! D2    D(2,1,6,10)           174.886          estimate D2E/DX2                !
 ! D3    D(3,1,6,4)            106.677          estimate D2E/DX2                !
 ! D4    D(3,1,6,10)           -64.9587         estimate D2E/DX2                !
 ! D5    D(7,1,6,4)           -132.6735         estimate D2E/DX2                !
 ! D6    D(7,1,6,10)            55.6908         estimate D2E/DX2                !
 ! D7    D(5,4,6,1)            -63.9835         estimate D2E/DX2                !
 ! D8    D(5,4,6,10)           107.5637         estimate D2E/DX2                !
 ! D9    D(8,4,6,1)            176.0264         estimate D2E/DX2                !
 ! D10   D(8,4,6,10)           -12.4263         estimate D2E/DX2                !
 ! D11   D(9,4,6,1)             56.7406         estimate D2E/DX2                !
 ! D12   D(9,4,6,10)          -131.7121         estimate D2E/DX2                !
 ! D13   D(1,6,10,11)          178.7379         estimate D2E/DX2                !
 ! D14   D(1,6,10,12)           -1.7134         estimate D2E/DX2                !
 ! D15   D(4,6,10,11)            7.3815         estimate D2E/DX2                !
 ! D16   D(4,6,10,12)         -173.0698         estimate D2E/DX2                !
 ! D17   D(6,10,12,13)        -178.7757         estimate D2E/DX2                !
 ! D18   D(6,10,12,14)           1.84           estimate D2E/DX2                !
 ! D19   D(11,10,12,13)          0.7657         estimate D2E/DX2                !
 ! D20   D(11,10,12,14)       -178.6186         estimate D2E/DX2                !
 ! D21   D(10,12,13,15)          0.6541         estimate D2E/DX2                !
 ! D22   D(10,12,13,16)       -179.0688         estimate D2E/DX2                !
 ! D23   D(14,12,13,15)       -179.9586         estimate D2E/DX2                !
 ! D24   D(14,12,13,16)          0.3184         estimate D2E/DX2                !
 ! D25   D(12,13,16,17)        179.4299         estimate D2E/DX2                !
 ! D26   D(12,13,16,18)         -0.6276         estimate D2E/DX2                !
 ! D27   D(15,13,16,17)         -0.298          estimate D2E/DX2                !
 ! D28   D(15,13,16,18)        179.6445         estimate D2E/DX2                !
 ! D29   D(13,16,17,19)          0.0063         estimate D2E/DX2                !
 ! D30   D(13,16,17,20)       -179.9908         estimate D2E/DX2                !
 ! D31   D(18,16,17,19)       -179.9391         estimate D2E/DX2                !
 ! D32   D(18,16,17,20)          0.0638         estimate D2E/DX2                !
 ! D33   D(13,16,18,21)       -179.9832         estimate D2E/DX2                !
 ! D34   D(13,16,18,22)         -0.0101         estimate D2E/DX2                !
 ! D35   D(17,16,18,21)         -0.0399         estimate D2E/DX2                !
 ! D36   D(17,16,18,22)        179.9331         estimate D2E/DX2                !
 ! D37   D(16,17,19,23)          0.1616         estimate D2E/DX2                !
 ! D38   D(20,17,19,23)       -179.8413         estimate D2E/DX2                !
 ! D39   D(16,17,20,24)        179.9941         estimate D2E/DX2                !
 ! D40   D(16,17,20,25)         -0.0465         estimate D2E/DX2                !
 ! D41   D(19,17,20,24)         -0.0031         estimate D2E/DX2                !
 ! D42   D(19,17,20,25)        179.9563         estimate D2E/DX2                !
 ! D43   D(16,18,21,25)         -0.0015         estimate D2E/DX2                !
 ! D44   D(16,18,21,26)        179.9849         estimate D2E/DX2                !
 ! D45   D(22,18,21,25)       -179.9751         estimate D2E/DX2                !
 ! D46   D(22,18,21,26)          0.0113         estimate D2E/DX2                !
 ! D47   D(17,20,25,21)          0.0033         estimate D2E/DX2                !
 ! D48   D(17,20,25,27)       -179.9766         estimate D2E/DX2                !
 ! D49   D(24,20,25,21)        179.962          estimate D2E/DX2                !
 ! D50   D(24,20,25,27)         -0.0179         estimate D2E/DX2                !
 ! D51   D(18,21,25,20)          0.0208         estimate D2E/DX2                !
 ! D52   D(18,21,25,27)       -179.9992         estimate D2E/DX2                !
 ! D53   D(26,21,25,20)       -179.9659         estimate D2E/DX2                !
 ! D54   D(26,21,25,27)          0.0141         estimate D2E/DX2                !
 --------------------------------------------------------------------------------
 Trust Radius=3.00D-01 FncErr=1.00D-07 GrdErr=1.00D-06
 Number of steps in this run=    134 maximum allowed number of steps=    162.
 GradGradGradGradGradGradGradGradGradGradGradGradGradGradGradGradGradGrad

                          Input orientation:                          
 ---------------------------------------------------------------------
 Center     Atomic      Atomic             Coordinates (Angstroms)
 Number     Number       Type             X           Y           Z
 ---------------------------------------------------------------------
      1          6           0        3.726649    1.627781    0.037634
      2          1           0        4.773786    1.907700    0.150110
      3          1           0        3.347853    2.052577   -0.899657
      4          6           0        4.825356   -0.595221   -0.106392
      5          1           0        5.284823   -0.428729   -1.087234
      6          7           0        3.612084    0.184157    0.046878
      7          1           0        3.162056    2.060223    0.868953
      8          1           0        4.592259   -1.655287   -0.009403
      9          1           0        5.550058   -0.329155    0.668189
     10          6           0        2.403158   -0.398123    0.024973
     11          1           0        2.405690   -1.484118    0.012301
     12          6           0        1.193471    0.226404    0.025742
     13          6           0       -0.001541   -0.593820    0.026782
     14          1           0        1.121709    1.302970    0.015659
     15          8           0        0.079652   -1.836062    0.039181
     16          6           0       -1.344656    0.037890    0.006830
     17          6           0       -2.497188   -0.788578   -0.004010
     18          6           0       -1.534338    1.427104   -0.000774
     19          8           0       -2.427981   -2.116424    0.003086
     20          6           0       -3.773446   -0.215251   -0.023040
     21          6           0       -2.787928    2.003703   -0.019006
     22          1           0       -0.675891    2.085659    0.008232
     23          1           0       -1.464665   -2.341988    0.019114
     24          1           0       -4.648018   -0.852169   -0.031315
     25          6           0       -3.886867    1.152942   -0.029974
     26          1           0       -2.927993    3.076331   -0.024554
     27          9           0       -5.114934    1.696247   -0.047771
 ---------------------------------------------------------------------
                    Distance matrix (angstroms):
                    1          2          3          4          5
     1  C    0.000000
     2  H    1.089725   0.000000
     3  H    1.096564   1.776593   0.000000
     4  C    2.483876   2.516558   3.134185   0.000000
     5  H    2.814688   2.692782   3.153397   1.095846   0.000000
     6  N    1.448192   2.081059   2.111099   1.450156   2.111847
     7  H    1.094012   1.771347   1.778359   3.281653   3.811520
     8  H    3.395590   3.571173   4.011154   1.089717   1.773643
     9  H    2.748094   2.423742   3.602846   1.093600   1.778138
    10  C    2.419933   3.309434   2.784478   2.433752   3.089002
    11  H    3.380752   4.138997   3.771942   2.580506   3.257642
    12  C    2.894993   3.957382   2.971974   3.726006   4.290347
    13  C    4.339934   5.392269   4.368083   4.828735   5.404992
    14  H    2.625204   3.704246   2.520998   4.163536   4.641839
    15  O    5.029791   6.005244   5.165662   4.907402   5.508467
    16  C    5.314775   6.399379   5.186552   6.203443   6.735333
    17  C    6.676576   7.756335   6.560400   7.325812   7.865276
    18  C    5.264952   6.328204   5.003498   6.674329   7.150207
    19  O    7.204147   8.251099   7.180235   7.411947   7.970224
    20  C    7.723462   8.808637   7.524919   8.607598   9.123066
    21  C    6.525659   7.564213   6.198850   8.045131   8.498655
    22  H    4.426384   5.454427   4.125030   6.120783   6.561426
    23  H    6.535224   7.549521   6.581540   6.529266   7.102123
    24  H    8.734412   9.819378   8.551346   9.477156   9.997780
    25  C    7.628608   8.695343   7.342129   8.886211   9.366930
    26  H    6.810757   7.791893   6.418732   8.579127   8.992501
    27  F    8.842260   9.892960   8.513016  10.201159  10.665410
                    6          7          8          9         10
     6  N    0.000000
     7  H    2.097130   0.000000
     8  H    2.085058   4.077009   0.000000
     9  H    2.098871   3.384078   1.770632   0.000000
    10  C    1.342026   2.707710   2.524640   3.212704   0.000000
    11  H    2.059059   3.724015   2.193366   3.413382   1.086071
    12  C    2.419074   2.819436   3.885069   4.438608   1.361388
    13  C    3.696477   4.214445   4.714979   5.594793   2.412650
    14  H    2.730327   2.337640   4.560333   4.764442   2.129769
    15  O    4.069327   5.036941   4.516488   5.708920   2.732499
    16  C    4.959060   5.014334   6.173660   6.936080   3.773135
    17  C    6.186438   6.395684   7.142232   8.088331   4.915962
    18  C    5.294605   4.818027   6.858309   7.329436   4.340045
    19  O    6.463512   7.031545   7.035381   8.202793   5.127665
    20  C    7.396653   7.353545   8.488753   9.349787   6.179497
    21  C    6.653964   6.016143   8.237443   8.685417   5.719972
    22  H    4.690835   3.933361   6.461300   6.710389   3.956008
    23  H    5.670588   6.442688   6.095794   7.326605   4.328822
    24  H    8.325225   8.383899   9.275139  10.235410   7.066004
    25  C    7.561661   7.163696   8.932085   9.578079   6.478675
    26  H    7.151390   6.238552   8.884967   9.162673   6.363604
    27  F    8.857552   8.335552  10.269560  10.879197   7.804703
                   11         12         13         14         15
    11  H    0.000000
    12  C    2.096555   0.000000
    13  C    2.566633   1.449422   0.000000
    14  H    3.068628   1.079002   2.204456   0.000000
    15  O    2.352667   2.344044   1.244954   3.307560   0.000000
    16  C    4.047423   2.545189   1.484390   2.771906   2.354017
    17  C    4.951995   3.827798   2.503424   4.179877   2.781940
    18  C    4.898898   2.980491   2.536604   2.658997   3.640716
    19  O    4.874862   4.313267   2.864698   4.928764   2.523515
    20  C    6.308170   4.986753   3.791183   5.125333   4.180582
    21  C    6.256161   4.360313   3.809616   3.972088   4.792723
    22  H    4.715874   2.636598   2.763096   1.960618   3.993958
    23  H    3.964295   3.696264   2.279667   4.469347   1.625201
    24  H    7.082095   5.940503   4.654016   6.159268   4.829480
    25  C    6.822913   5.164437   4.260300   5.011030   4.967111
    26  H    7.017637   5.011095   4.694333   4.421144   5.760346
    27  F    8.165668   6.477795   5.603281   6.249353   6.282395
                   16         17         18         19         20
    16  C    0.000000
    17  C    1.418272   0.000000
    18  C    1.402125   2.415852   0.000000
    19  O    2.411364   1.329667   3.654478   0.000000
    20  C    2.442129   1.399250   2.776947   2.329253   0.000000
    21  C    2.438877   2.807417   1.379959   4.135880   2.427967
    22  H    2.154207   3.402721   1.081992   4.552730   3.858758
    23  H    2.382934   1.865401   3.769789   0.989502   3.139309
    24  H    3.421383   2.151943   3.858889   2.555012   1.081947
    25  C    2.776244   2.387756   2.368630   3.580250   1.372903
    26  H    3.426378   3.888899   2.159349   5.216846   3.398427
    27  F    4.119239   3.609552   3.591005   4.664630   2.335386
                   21         22         23         24         25
    21  C    0.000000
    22  H    2.113801   0.000000
    23  H    4.542853   4.497371   0.000000
    24  H    3.408240   4.940667   3.515088   0.000000
    25  C    1.389814   3.343918   4.252529   2.144720   0.000000
    26  H    1.081748   2.460583   5.612613   4.288549   2.149162
    27  F    2.347406   4.456443   5.443922   2.590890   1.343000
                   26         27
    26  H    0.000000
    27  F    2.586094   0.000000
 Stoichiometry    C11H12FNO2
 Framework group  C1[X(C11H12FNO2)]
 Deg. of freedom    75
 Full point group                 C1      NOp   1
 Largest Abelian subgroup         C1      NOp   1
 Largest concise Abelian subgroup C1      NOp   1
                         Standard orientation:                         
 ---------------------------------------------------------------------
 Center     Atomic      Atomic             Coordinates (Angstroms)
 Number     Number       Type             X           Y           Z
 ---------------------------------------------------------------------
      1          6           0        3.978918   -1.800141   -0.039890
      2          1           0        5.002900   -2.155771   -0.151648
      3          1           0        3.568543   -2.198362    0.895772
      4          6           0        5.237362    0.335992    0.111420
      5          1           0        5.681855    0.133835    1.092458
      6          7           0        3.970475   -0.351985   -0.045546
      7          1           0        3.385454   -2.187971   -0.873106
      8          1           0        5.082732    1.410530    0.016860
      9          1           0        5.941827    0.019456   -0.662850
     10          6           0        2.807440    0.317277   -0.023796
     11          1           0        2.889535    1.400130   -0.008303
     12          6           0        1.555240   -0.216909   -0.027854
     13          6           0        0.423555    0.688693   -0.028412
     14          1           0        1.404757   -1.285341   -0.020663
     15          8           0        0.595589    1.921670   -0.037476
     16          6           0       -0.962273    0.157072   -0.011951
     17          6           0       -2.051152    1.065757   -0.000556
     18          6           0       -1.253268   -1.214519   -0.008214
     19          8           0       -1.884807    2.384974   -0.004111
     20          6           0       -3.366024    0.587464    0.015227
     21          6           0       -2.545770   -1.697735    0.006793
     22          1           0       -0.445380   -1.934195   -0.017746
     23          1           0       -0.907526    2.539368   -0.018225
     24          1           0       -4.191578    1.286745    0.023949
     25          6           0       -3.579421   -0.768749    0.018454
     26          1           0       -2.764077   -2.757223    0.009365
     27          9           0       -4.844029   -1.220631    0.033147
 ---------------------------------------------------------------------
 Rotational constants (GHZ):      1.4520923      0.2524154      0.2156824
 Standard basis: 6-311++G(d,p) (5D, 7F)
 There are   429 symmetry adapted cartesian basis functions of A   symmetry.
 There are   414 symmetry adapted basis functions of A   symmetry.
   414 basis functions,   648 primitive gaussians,   429 cartesian basis functions
    55 alpha electrons       55 beta electrons
       nuclear repulsion energy       940.3059176048 Hartrees.
 NAtoms=   27 NActive=   27 NUniq=   27 SFac= 1.00D+00 NAtFMM=   60 NAOKFM=F Big=F
 Integral buffers will be    131072 words long.
 Raffenetti 2 integral format.
 Two-electron integral symmetry is turned on.
 Nuclear repulsion after empirical dispersion term =      940.2907908444 Hartrees.
 ------------------------------------------------------------------------------
 Polarizable Continuum Model (PCM)
 =================================
 Model                : PCM (using non-symmetric T matrix).
 Atomic radii         : UFF (Universal Force Field).
 Polarization charges : Total charges.
 Charge compensation  : None.
 Solution method      : On-the-fly selection.
 Cavity type          : Scaled VdW (van der Waals Surface) (Alpha=1.100).
 Cavity algorithm     : GePol (No added spheres)
                        Default sphere list used, NSphG=   27.
                        Lebedev-Laikov grids with approx.  5.0 points / Ang**2.
                        Smoothing algorithm: Karplus/York (Gamma=1.0000).
                        Polarization charges: spherical gaussians, with
                                              point-specific exponents (IZeta= 3).
                        Self-potential: point-specific (ISelfS= 7).
                        Self-field    : sphere-specific E.n sum rule (ISelfD= 2).
 1st derivatives      : Analytical E(r).r(x)/FMM algorithm (CHGder, D1EAlg=3).
                        Cavity 1st derivative terms included.
 Solvent              : Dichloromethane, Eps=   8.930000 Eps(inf)=   2.028346
 ------------------------------------------------------------------------------
 One-electron integrals computed using PRISM.
 NBasis=   414 RedAO= T EigKep=  1.58D-06  NBF=   414
 NBsUse=   411 1.00D-06 EigRej=  7.81D-07 NBFU=   411
 ExpMin= 3.60D-02 ExpMax= 1.14D+04 ExpMxC= 1.72D+03 IAcc=3 IRadAn=         5 AccDes= 0.00D+00
 Harris functional with IExCor= 4639 and IRadAn=       5 diagonalized for initial guess.
 HarFok:  IExCor= 4639 AccDes= 0.00D+00 IRadAn=         5 IDoV= 1 UseB2=F ITyADJ=14
 ICtDFT=  3500011 ScaDFX=  1.000000  1.000000  1.000000  1.000000
 FoFCou: FMM=F IPFlag=           0 FMFlag=      100000 FMFlg1=           0
         NFxFlg=           0 DoJE=T BraDBF=F KetDBF=T FulRan=T
         wScrn=  0.000000 ICntrl=     500 IOpCl=  0 I1Cent=   200000004 NGrid=           0
         NMat0=    1 NMatS0=      1 NMatT0=    0 NMatD0=    1 NMtDS0=    0 NMtDT0=    0
 Petite list used in FoFCou.
 Requested convergence on RMS density matrix=1.00D-08 within 128 cycles.
 Requested convergence on MAX density matrix=1.00D-06.
 Requested convergence on             energy=1.00D-06.
 No special actions if energy rises.
 Inv3:  Mode=1 IEnd=    14074668.
 Iteration    1 A*A^-1 deviation from unit magnitude is 7.44D-15 for   2162.
 Iteration    1 A*A^-1 deviation from orthogonality  is 2.82D-15 for   1824   1498.
 Iteration    1 A^-1*A deviation from unit magnitude is 7.66D-15 for   2162.
 Iteration    1 A^-1*A deviation from orthogonality  is 7.52D-09 for   2006   1993.
 Iteration    2 A*A^-1 deviation from unit magnitude is 2.44D-15 for   1038.
 Iteration    2 A*A^-1 deviation from orthogonality  is 2.02D-15 for   2058    762.
 Iteration    2 A^-1*A deviation from unit magnitude is 1.33D-15 for   1027.
 Iteration    2 A^-1*A deviation from orthogonality  is 4.04D-16 for   1526   1370.
 Error on total polarization charges =  0.01293
 SCF Done:  E(RwB97XD) =  -731.406942970     A.U. after   17 cycles
            NFock= 17  Conv=0.27D-08     -V/T= 2.0037

 **********************************************************************

            Population analysis using the SCF density.

 **********************************************************************

 Orbital symmetries:
       Occupied  (A) (A) (A) (A) (A) (A) (A) (A) (A) (A) (A) (A)
                 (A) (A) (A) (A) (A) (A) (A) (A) (A) (A) (A) (A)
                 (A) (A) (A) (A) (A) (A) (A) (A) (A) (A) (A) (A)
                 (A) (A) (A) (A) (A) (A) (A) (A) (A) (A) (A) (A)
                 (A) (A) (A) (A) (A) (A) (A)
       Virtual   (A) (A) (A) (A) (A) (A) (A) (A) (A) (A) (A) (A)
                 (A) (A) (A) (A) (A) (A) (A) (A) (A) (A) (A) (A)
                 (A) (A) (A) (A) (A) (A) (A) (A) (A) (A) (A) (A)
                 (A) (A) (A) (A) (A) (A) (A) (A) (A) (A) (A) (A)
                 (A) (A) (A) (A) (A) (A) (A) (A) (A) (A) (A) (A)
                 (A) (A) (A) (A) (A) (A) (A) (A) (A) (A) (A) (A)
                 (A) (A) (A) (A) (A) (A) (A) (A) (A) (A) (A) (A)
                 (A) (A) (A) (A) (A) (A) (A) (A) (A) (A) (A) (A)
                 (A) (A) (A) (A) (A) (A) (A) (A) (A) (A) (A) (A)
                 (A) (A) (A) (A) (A) (A) (A) (A) (A) (A) (A) (A)
                 (A) (A) (A) (A) (A) (A) (A) (A) (A) (A) (A) (A)
                 (A) (A) (A) (A) (A) (A) (A) (A) (A) (A) (A) (A)
                 (A) (A) (A) (A) (A) (A) (A) (A) (A) (A) (A) (A)
                 (A) (A) (A) (A) (A) (A) (A) (A) (A) (A) (A) (A)
                 (A) (A) (A) (A) (A) (A) (A) (A) (A) (A) (A) (A)
                 (A) (A) (A) (A) (A) (A) (A) (A) (A) (A) (A) (A)
                 (A) (A) (A) (A) (A) (A) (A) (A) (A) (A) (A) (A)
                 (A) (A) (A) (A) (A) (A) (A) (A) (A) (A) (A) (A)
                 (A) (A) (A) (A) (A) (A) (A) (A) (A) (A) (A) (A)
                 (A) (A) (A) (A) (A) (A) (A) (A) (A) (A) (A) (A)
                 (A) (A) (A) (A) (A) (A) (A) (A) (A) (A) (A) (A)
                 (A) (A) (A) (A) (A) (A) (A) (A) (A) (A) (A) (A)
                 (A) (A) (A) (A) (A) (A) (A) (A) (A) (A) (A) (A)
                 (A) (A) (A) (A) (A) (A) (A) (A) (A) (A) (A) (A)
                 (A) (A) (A) (A) (A) (A) (A) (A) (A) (A) (A) (A)
                 (A) (A) (A) (A) (A) (A) (A) (A) (A) (A) (A) (A)
                 (A) (A) (A) (A) (A) (A) (A) (A) (A) (A) (A) (A)
                 (A) (A) (A) (A) (A) (A) (A) (A) (A) (A) (A) (A)
                 (A) (A) (A) (A) (A) (A) (A) (A) (A) (A) (A) (A)
                 (A) (A) (A) (A) (A) (A) (A) (A)
 The electronic state is 1-A.
 Alpha  occ. eigenvalues --  -24.83206 -19.27378 -19.23280 -14.48614 -10.39006
 Alpha  occ. eigenvalues --  -10.38282 -10.37368 -10.34566 -10.32292 -10.32159
 Alpha  occ. eigenvalues --  -10.31326 -10.30543 -10.29670 -10.29610 -10.27397
 Alpha  occ. eigenvalues --   -1.34884  -1.18376  -1.14037  -1.08087  -0.97840
 Alpha  occ. eigenvalues --   -0.89645  -0.87496  -0.86134  -0.83940  -0.79811
 Alpha  occ. eigenvalues --   -0.75284  -0.72908  -0.69962  -0.66357  -0.64557
 Alpha  occ. eigenvalues --   -0.63026  -0.61333  -0.59471  -0.57788  -0.57754
 Alpha  occ. eigenvalues --   -0.57268  -0.56253  -0.54046  -0.52892  -0.52880
 Alpha  occ. eigenvalues --   -0.51758  -0.50543  -0.50127  -0.49373  -0.48421
 Alpha  occ. eigenvalues --   -0.48049  -0.47320  -0.46811  -0.44323  -0.43513
 Alpha  occ. eigenvalues --   -0.41280  -0.35167  -0.34543  -0.31770  -0.29149
 Alpha virt. eigenvalues --   -0.00365   0.03874   0.04606   0.04842   0.05309
 Alpha virt. eigenvalues --    0.06276   0.06505   0.06810   0.07531   0.08001
 Alpha virt. eigenvalues --    0.08815   0.08945   0.09411   0.10419   0.10736
 Alpha virt. eigenvalues --    0.11072   0.12318   0.13220   0.13349   0.13863
 Alpha virt. eigenvalues --    0.13903   0.14579   0.15268   0.15957   0.16250
 Alpha virt. eigenvalues --    0.16421   0.16836   0.17034   0.17196   0.17322
 Alpha virt. eigenvalues --    0.18155   0.18652   0.18937   0.19069   0.19377
 Alpha virt. eigenvalues --    0.19808   0.19977   0.20754   0.21127   0.21606
 Alpha virt. eigenvalues --    0.21695   0.21758   0.21847   0.23258   0.23330
 Alpha virt. eigenvalues --    0.23758   0.24371   0.24482   0.24877   0.25662
 Alpha virt. eigenvalues --    0.26061   0.26727   0.26982   0.27298   0.27577
 Alpha virt. eigenvalues --    0.27957   0.28452   0.29208   0.29656   0.29778
 Alpha virt. eigenvalues --    0.30439   0.31211   0.32602   0.32878   0.33086
 Alpha virt. eigenvalues --    0.33980   0.34139   0.34601   0.35252   0.35502
 Alpha virt. eigenvalues --    0.35965   0.36704   0.37343   0.37684   0.38162
 Alpha virt. eigenvalues --    0.38453   0.38931   0.39126   0.39272   0.40026
 Alpha virt. eigenvalues --    0.41590   0.42366   0.42710   0.42740   0.43508
 Alpha virt. eigenvalues --    0.43959   0.44651   0.44870   0.45629   0.46125
 Alpha virt. eigenvalues --    0.48229   0.48995   0.50020   0.50730   0.51529
 Alpha virt. eigenvalues --    0.52916   0.52945   0.54106   0.55802   0.58470
 Alpha virt. eigenvalues --    0.58573   0.60169   0.60411   0.60876   0.62509
 Alpha virt. eigenvalues --    0.63042   0.64067   0.64946   0.65934   0.66585
 Alpha virt. eigenvalues --    0.67069   0.68159   0.68338   0.69463   0.69649
 Alpha virt. eigenvalues --    0.69983   0.71109   0.71655   0.72431   0.73101
 Alpha virt. eigenvalues --    0.73925   0.74329   0.75026   0.75190   0.76832
 Alpha virt. eigenvalues --    0.77514   0.79145   0.79838   0.80320   0.80656
 Alpha virt. eigenvalues --    0.81609   0.83748   0.85316   0.86458   0.87625
 Alpha virt. eigenvalues --    0.88672   0.89097   0.89991   0.93719   0.94120
 Alpha virt. eigenvalues --    0.95207   0.96383   0.96620   0.98217   0.99026
 Alpha virt. eigenvalues --    0.99068   1.01440   1.01893   1.03587   1.04473
 Alpha virt. eigenvalues --    1.04958   1.05627   1.06960   1.07400   1.08907
 Alpha virt. eigenvalues --    1.12252   1.12648   1.12991   1.14196   1.15624
 Alpha virt. eigenvalues --    1.15995   1.16772   1.18331   1.18425   1.19272
 Alpha virt. eigenvalues --    1.21168   1.23618   1.25169   1.27200   1.30845
 Alpha virt. eigenvalues --    1.31485   1.32259   1.33164   1.35775   1.38198
 Alpha virt. eigenvalues --    1.38652   1.43614   1.45915   1.46592   1.48795
 Alpha virt. eigenvalues --    1.50651   1.51499   1.52445   1.53413   1.54308
 Alpha virt. eigenvalues --    1.55671   1.57688   1.59362   1.59668   1.61240
 Alpha virt. eigenvalues --    1.62164   1.62694   1.63720   1.64300   1.64596
 Alpha virt. eigenvalues --    1.65239   1.66934   1.68552   1.68779   1.69353
 Alpha virt. eigenvalues --    1.70838   1.73274   1.73940   1.74781   1.77541
 Alpha virt. eigenvalues --    1.77913   1.78885   1.81396   1.81924   1.82979
 Alpha virt. eigenvalues --    1.83570   1.84962   1.86553   1.87628   1.91428
 Alpha virt. eigenvalues --    1.93129   1.94391   1.96873   1.97425   1.98426
 Alpha virt. eigenvalues --    2.00359   2.00706   2.03550   2.03689   2.05022
 Alpha virt. eigenvalues --    2.06980   2.07587   2.07778   2.09406   2.10399
 Alpha virt. eigenvalues --    2.12676   2.13262   2.16358   2.17545   2.18019
 Alpha virt. eigenvalues --    2.18388   2.22089   2.25006   2.25531   2.26281
 Alpha virt. eigenvalues --    2.28793   2.30089   2.32972   2.36635   2.40035
 Alpha virt. eigenvalues --    2.40527   2.43887   2.46118   2.47860   2.51388
 Alpha virt. eigenvalues --    2.52289   2.53867   2.56148   2.57114   2.59350
 Alpha virt. eigenvalues --    2.60511   2.63539   2.64739   2.66010   2.68412
 Alpha virt. eigenvalues --    2.71715   2.72080   2.72460   2.72773   2.76405
 Alpha virt. eigenvalues --    2.77891   2.78514   2.78875   2.82146   2.82757
 Alpha virt. eigenvalues --    2.83350   2.84361   2.85135   2.87926   2.88353
 Alpha virt. eigenvalues --    2.89242   2.91946   2.92244   2.94906   2.96369
 Alpha virt. eigenvalues --    2.96830   2.98492   3.01773   3.03220   3.08102
 Alpha virt. eigenvalues --    3.11703   3.14519   3.15748   3.17516   3.20560
 Alpha virt. eigenvalues --    3.20736   3.23901   3.25170   3.27568   3.29800
 Alpha virt. eigenvalues --    3.29889   3.31756   3.37219   3.42044   3.45994
 Alpha virt. eigenvalues --    3.52106   3.57249   3.60475   3.62132   3.67560
 Alpha virt. eigenvalues --    3.68508   3.72371   3.74059   3.78680   3.81448
 Alpha virt. eigenvalues --    3.81862   3.84709   3.86584   3.86731   3.89209
 Alpha virt. eigenvalues --    3.94122   3.95414   3.96081   4.02411   4.07240
 Alpha virt. eigenvalues --    4.09636   4.12247   4.17760   4.22311   4.28647
 Alpha virt. eigenvalues --    4.30379   4.39220   4.64085   4.93105   4.96643
 Alpha virt. eigenvalues --    4.99555   5.12217   5.17782   5.18577   5.42324
 Alpha virt. eigenvalues --    5.60994   5.89045   5.93405   6.42667   6.55535
 Alpha virt. eigenvalues --    6.86645  23.70123  23.94211  24.02979  24.03951
 Alpha virt. eigenvalues --   24.05811  24.06287  24.08915  24.15179  24.23902
 Alpha virt. eigenvalues --   24.30187  24.32035  35.71023  50.12356  50.19209
 Alpha virt. eigenvalues --   66.93889
          Condensed to atoms (all electrons):
               1          2          3          4          5          6
     1  C    5.265226   0.387468   0.416719  -0.070254   0.012618   0.240411
     2  H    0.387468   0.460491  -0.015793   0.001815  -0.005608  -0.046054
     3  H    0.416719  -0.015793   0.515493  -0.007927   0.000045  -0.049101
     4  C   -0.070254   0.001815  -0.007927   5.185593   0.398885   0.249612
     5  H    0.012618  -0.005608   0.000045   0.398885   0.540199  -0.044872
     6  N    0.240411  -0.046054  -0.049101   0.249612  -0.044872   6.797620
     7  H    0.414094  -0.021254  -0.052161   0.010254   0.001904  -0.030364
     8  H   -0.001404   0.003893  -0.000654   0.409482  -0.030650  -0.094706
     9  H   -0.014051  -0.003742   0.003248   0.410267  -0.058737  -0.041942
    10  C    0.160170   0.022346  -0.008907  -0.062240  -0.035545   0.197503
    11  H    0.008524  -0.001213  -0.002157  -0.032423   0.005000  -0.058828
    12  C    0.142783   0.027156  -0.004925  -0.055877   0.011574  -0.215034
    13  C   -0.273794  -0.016458   0.013775  -0.098733   0.003070   0.013424
    14  H    0.012301   0.001482  -0.009472  -0.005471   0.000705  -0.028531
    15  O   -0.001454   0.000057   0.000202  -0.000725  -0.000095   0.003062
    16  C   -0.215307  -0.005794   0.001469   0.009165  -0.000729  -0.008734
    17  C   -0.035119   0.000066  -0.000466  -0.003398  -0.000386   0.004794
    18  C   -0.000511  -0.004311   0.001851  -0.012793   0.000554  -0.005684
    19  O   -0.000055  -0.000005   0.000043   0.000338   0.000008  -0.000145
    20  C    0.005510   0.000280  -0.000783  -0.000526   0.000007  -0.000107
    21  C    0.002042   0.000012   0.000884   0.000973   0.000009  -0.000628
    22  H    0.003994   0.000221  -0.000412  -0.001763  -0.000051  -0.006088
    23  H   -0.001146  -0.000098   0.000067  -0.000009   0.000006   0.000066
    24  H    0.000062   0.000003  -0.000009   0.000017   0.000001  -0.000026
    25  C   -0.002018  -0.000047   0.000122  -0.000535  -0.000005  -0.000037
    26  H   -0.000959  -0.000061   0.000061   0.000090   0.000002   0.000185
    27  F    0.000009   0.000000   0.000000   0.000000   0.000000   0.000000
               7          8          9         10         11         12
     1  C    0.414094  -0.001404  -0.014051   0.160170   0.008524   0.142783
     2  H   -0.021254   0.003893  -0.003742   0.022346  -0.001213   0.027156
     3  H   -0.052161  -0.000654   0.003248  -0.008907  -0.002157  -0.004925
     4  C    0.010254   0.409482   0.410267  -0.062240  -0.032423  -0.055877
     5  H    0.001904  -0.030650  -0.058737  -0.035545   0.005000   0.011574
     6  N   -0.030364  -0.094706  -0.041942   0.197503  -0.058828  -0.215034
     7  H    0.529735  -0.003049  -0.001382   0.031458   0.002608  -0.043567
     8  H   -0.003049   0.532415  -0.024103   0.061539  -0.010585   0.002019
     9  H   -0.001382  -0.024103   0.539272  -0.008276   0.000990   0.008582
    10  C    0.031458   0.061539  -0.008276  11.682768   0.333791   2.643146
    11  H    0.002608  -0.010585   0.000990   0.333791   0.462743   0.073675
    12  C   -0.043567   0.002019   0.008582   2.643146   0.073675  11.865713
    13  C   -0.029248   0.002391   0.001493  -3.829150   0.067429   1.310988
    14  H    0.013598  -0.003627   0.000342   0.095070   0.001208   0.550439
    15  O    0.000663   0.000311   0.000085   0.014117   0.009655  -0.248572
    16  C   -0.003137   0.004981   0.001166  -2.366867  -0.078145  -4.353282
    17  C   -0.000599   0.003524  -0.000158  -1.448380  -0.071065  -3.761189
    18  C   -0.005223  -0.003677   0.000295  -1.664523   0.050549  -0.652016
    19  O    0.000027  -0.000094   0.000001   0.016017  -0.000031  -0.027564
    20  C   -0.000802   0.000107  -0.000008  -0.182411  -0.002395   0.003994
    21  C    0.002202  -0.000219  -0.000002   0.145617   0.002448  -0.297172
    22  H   -0.005443   0.000535  -0.000084  -0.140260   0.002357  -0.022080
    23  H   -0.000027   0.000024   0.000036  -0.017948   0.000710   0.004906
    24  H   -0.000012   0.000002   0.000000   0.000461  -0.000146   0.000441
    25  C    0.000049  -0.000018  -0.000001  -0.186228  -0.000943  -0.470765
    26  H    0.000157  -0.000002   0.000004   0.006013  -0.000223  -0.014745
    27  F    0.000000   0.000000   0.000000   0.000534   0.000017   0.003694
              13         14         15         16         17         18
     1  C   -0.273794   0.012301  -0.001454  -0.215307  -0.035119  -0.000511
     2  H   -0.016458   0.001482   0.000057  -0.005794   0.000066  -0.004311
     3  H    0.013775  -0.009472   0.000202   0.001469  -0.000466   0.001851
     4  C   -0.098733  -0.005471  -0.000725   0.009165  -0.003398  -0.012793
     5  H    0.003070   0.000705  -0.000095  -0.000729  -0.000386   0.000554
     6  N    0.013424  -0.028531   0.003062  -0.008734   0.004794  -0.005684
     7  H   -0.029248   0.013598   0.000663  -0.003137  -0.000599  -0.005223
     8  H    0.002391  -0.003627   0.000311   0.004981   0.003524  -0.003677
     9  H    0.001493   0.000342   0.000085   0.001166  -0.000158   0.000295
    10  C   -3.829150   0.095070   0.014117  -2.366867  -1.448380  -1.664523
    11  H    0.067429   0.001208   0.009655  -0.078145  -0.071065   0.050549
    12  C    1.310988   0.550439  -0.248572  -4.353282  -3.761189  -0.652016
    13  C   12.706798  -0.048895   0.880226   1.162735  -4.274209   0.698401
    14  H   -0.048895   0.589830  -0.013511  -0.064290  -0.001562  -0.145982
    15  O    0.880226  -0.013511   8.228294  -0.118483  -0.122836  -0.240934
    16  C    1.162735  -0.064290  -0.118483  17.584379   2.155000  -4.693938
    17  C   -4.274209  -0.001562  -0.122836   2.155000  16.748734  -4.699311
    18  C    0.698401  -0.145982  -0.240934  -4.693938  -4.699311  16.078061
    19  O   -0.021273  -0.000463  -0.005556   0.070096   0.321544  -0.035108
    20  C   -0.480295  -0.019234  -0.048980  -2.847329   0.142811   1.610015
    21  C   -0.482609  -0.067277   0.005382  -0.965352   0.731018   0.302751
    22  H    0.021259  -0.030923  -0.000266  -0.299745  -0.045050   0.800858
    23  H    0.023921  -0.001213   0.073862  -0.137377   0.002996   0.045463
    24  H    0.007337  -0.000746   0.000281  -0.079340  -0.040539   0.023488
    25  C   -0.867345  -0.014352  -0.024244  -0.976526  -0.063417   0.550521
    26  H   -0.013944   0.004721   0.000595   0.130410   0.065978  -0.076194
    27  F    0.006757  -0.000322  -0.000017   0.017528  -0.081585  -0.052631
              19         20         21         22         23         24
     1  C   -0.000055   0.005510   0.002042   0.003994  -0.001146   0.000062
     2  H   -0.000005   0.000280   0.000012   0.000221  -0.000098   0.000003
     3  H    0.000043  -0.000783   0.000884  -0.000412   0.000067  -0.000009
     4  C    0.000338  -0.000526   0.000973  -0.001763  -0.000009   0.000017
     5  H    0.000008   0.000007   0.000009  -0.000051   0.000006   0.000001
     6  N   -0.000145  -0.000107  -0.000628  -0.006088   0.000066  -0.000026
     7  H    0.000027  -0.000802   0.002202  -0.005443  -0.000027  -0.000012
     8  H   -0.000094   0.000107  -0.000219   0.000535   0.000024   0.000002
     9  H    0.000001  -0.000008  -0.000002  -0.000084   0.000036   0.000000
    10  C    0.016017  -0.182411   0.145617  -0.140260  -0.017948   0.000461
    11  H   -0.000031  -0.002395   0.002448   0.002357   0.000710  -0.000146
    12  C   -0.027564   0.003994  -0.297172  -0.022080   0.004906   0.000441
    13  C   -0.021273  -0.480295  -0.482609   0.021259   0.023921   0.007337
    14  H   -0.000463  -0.019234  -0.067277  -0.030923  -0.001213  -0.000746
    15  O   -0.005556  -0.048980   0.005382  -0.000266   0.073862   0.000281
    16  C    0.070096  -2.847329  -0.965352  -0.299745  -0.137377  -0.079340
    17  C    0.321544   0.142811   0.731018  -0.045050   0.002996  -0.040539
    18  C   -0.035108   1.610015   0.302751   0.800858   0.045463   0.023488
    19  O    8.171337  -0.395446   0.015498  -0.003111   0.243607  -0.019971
    20  C   -0.395446  10.721661  -2.436652   0.151281   0.071351   0.663882
    21  C    0.015498  -2.436652   9.289364  -0.112866   0.011683  -0.079206
    22  H   -0.003111   0.151281  -0.112866   0.542570   0.002135   0.003457
    23  H    0.243607   0.071351   0.011683   0.002135   0.298946   0.001573
    24  H   -0.019971   0.663882  -0.079206   0.003457   0.001573   0.438983
    25  C   -0.001050  -0.290616   0.017306   0.058379   0.000147  -0.169636
    26  H    0.000403  -0.124789   0.529115  -0.027270   0.000333  -0.001996
    27  F   -0.000746  -0.228812  -0.214067   0.002847  -0.000181  -0.020610
              25         26         27
     1  C   -0.002018  -0.000959   0.000009
     2  H   -0.000047  -0.000061   0.000000
     3  H    0.000122   0.000061   0.000000
     4  C   -0.000535   0.000090   0.000000
     5  H   -0.000005   0.000002   0.000000
     6  N   -0.000037   0.000185   0.000000
     7  H    0.000049   0.000157   0.000000
     8  H   -0.000018  -0.000002   0.000000
     9  H   -0.000001   0.000004   0.000000
    10  C   -0.186228   0.006013   0.000534
    11  H   -0.000943  -0.000223   0.000017
    12  C   -0.470765  -0.014745   0.003694
    13  C   -0.867345  -0.013944   0.006757
    14  H   -0.014352   0.004721  -0.000322
    15  O   -0.024244   0.000595  -0.000017
    16  C   -0.976526   0.130410   0.017528
    17  C   -0.063417   0.065978  -0.081585
    18  C    0.550521  -0.076194  -0.052631
    19  O   -0.001050   0.000403  -0.000746
    20  C   -0.290616  -0.124789  -0.228812
    21  C    0.017306   0.529115  -0.214067
    22  H    0.058379  -0.027270   0.002847
    23  H    0.000147   0.000333  -0.000181
    24  H   -0.169636  -0.001996  -0.020610
    25  C    8.631332  -0.180834   0.598410
    26  H   -0.180834   0.446598  -0.025453
    27  F    0.598410  -0.025453   9.156373
 Mulliken charges:
               1
     1  C   -0.455862
     2  H    0.215146
     3  H    0.198789
     4  C   -0.323816
     5  H    0.202088
     6  N    0.124202
     7  H    0.189520
     8  H    0.151562
     9  H    0.186706
    10  C    0.540184
    11  H    0.236451
    12  C   -0.482322
    13  C   -0.484052
    14  H    0.186174
    15  O   -0.391120
    16  C    2.077445
    17  C    0.472806
    18  C   -1.869973
    19  O   -0.328303
    20  C   -0.311713
    21  C   -0.400256
    22  H    0.105520
    23  H    0.376166
    24  H    0.272249
    25  C   -0.607649
    26  H    0.281805
    27  F   -0.161746
 Sum of Mulliken charges =   0.00000
 Mulliken charges with hydrogens summed into heavy atoms:
               1
     1  C    0.147594
     4  C    0.216540
     6  N    0.124202
    10  C    0.776635
    12  C   -0.296148
    13  C   -0.484052
    15  O   -0.391120
    16  C    2.077445
    17  C    0.472806
    18  C   -1.764453
    19  O    0.047863
    20  C   -0.039464
    21  C   -0.118451
    25  C   -0.607649
    27  F   -0.161746
 Electronic spatial extent (au):  <R**2>=           4727.9814
 Charge=              0.0000 electrons
 Dipole moment (field-independent basis, Debye):
    X=              8.7794    Y=             -4.6465    Z=              0.1684  Tot=              9.9346
 Quadrupole moment (field-independent basis, Debye-Ang):
   XX=            -65.3287   YY=            -88.4385   ZZ=            -91.0371
   XY=             -3.9756   XZ=              0.7601   YZ=              0.3036
 Traceless Quadrupole moment (field-independent basis, Debye-Ang):
   XX=             16.2727   YY=             -6.8370   ZZ=             -9.4357
   XY=             -3.9756   XZ=              0.7601   YZ=              0.3036
 Octapole moment (field-independent basis, Debye-Ang**2):
  XXX=            215.2965  YYY=            -34.8658  ZZZ=              0.8870  XYY=             17.1721
  XXY=              2.5342  XXZ=              2.4198  XZZ=             -1.8305  YZZ=              1.8523
  YYZ=             -0.1959  XYZ=              0.7003
 Hexadecapole moment (field-independent basis, Debye-Ang**3):
 XXXX=          -4381.3720 YYYY=           -938.3845 ZZZZ=           -110.9909 XXXY=           -139.7190
 XXXZ=              8.6443 YYYX=             51.4932 YYYZ=              0.5515 ZZZX=              2.7276
 ZZZY=             -0.6804 XXYY=           -943.9682 XXZZ=           -860.6573 YYZZ=           -180.8605
 XXYZ=              5.3124 YYXZ=             -1.8489 ZZXY=              3.3731
 N-N= 9.402907908444D+02 E-N=-3.591785471379D+03  KE= 7.287082754523D+02
 D1PCM: PCM CHGder 1st derivatives, ID1Alg=3 FixD1E=F DoIter=F DoCFld=F I1PDM=0.
 Calling FoFJK, ICntrl=      2127 FMM=F ISym2X=0 I1Cent= 0 IOpClX= 0 NMat=1 NMatS=1 NMatT=0.
 ***** Axes restored to original set *****
 -------------------------------------------------------------------
 Center     Atomic                   Forces (Hartrees/Bohr)
 Number     Number              X              Y              Z
 -------------------------------------------------------------------
      1        6           0.000194259    0.002871266    0.000224338
      2        1          -0.000481377   -0.000362766   -0.000090541
      3        1           0.000263276   -0.000493012    0.000380572
      4        6           0.002365540   -0.002272779    0.000196737
      5        1          -0.000781302    0.000556664    0.000614835
      6        7          -0.008732071   -0.003781770   -0.001001521
      7        1           0.000262327   -0.000129470   -0.000263525
      8        1          -0.000046975    0.000118879   -0.000061894
      9        1          -0.000709266    0.000329480   -0.000374915
     10        6           0.012785678   -0.000339094    0.000324707
     11        1           0.001411269    0.000320257   -0.000134733
     12        6          -0.011061573    0.000952495    0.000181794
     13        6           0.008694344    0.010666968   -0.000177740
     14        1          -0.000020489   -0.000065164    0.000002336
     15        8          -0.002706911   -0.008931728    0.000185086
     16        6          -0.002507992   -0.001100036   -0.000002918
     17        6          -0.000177223    0.006675006   -0.000038462
     18        6           0.001296080   -0.000182363    0.000023036
     19        8          -0.000546922   -0.005149900    0.000036217
     20        6          -0.000148146   -0.001527557    0.000010503
     21        6          -0.002128863   -0.000112921   -0.000027229
     22        1          -0.000169440    0.000006245   -0.000003510
     23        1           0.001562488    0.000699025   -0.000005279
     24        1          -0.000442415    0.000022077   -0.000006362
     25        6           0.003752593    0.000493379    0.000042841
     26        1           0.000396886    0.000114306   -0.000002235
     27        9          -0.002323774    0.000622512   -0.000032138
 -------------------------------------------------------------------
 Cartesian Forces:  Max     0.012785678 RMS     0.003123708

 GradGradGradGradGradGradGradGradGradGradGradGradGradGradGradGradGradGrad
 Berny optimization.
 FormGI is forming the generalized inverse of G from B-inverse, IUseBI=4.
 Internal  Forces:  Max     0.008737596 RMS     0.001641384
 Search for a local minimum.
 Step number   1 out of a maximum of  134
 All quantities printed in internal units (Hartrees-Bohrs-Radians)
 Mixed Optimization -- RFO/linear search
 Second derivative matrix not updated -- first step.
 ITU=  0
     Eigenvalues ---    0.00972   0.01028   0.01054   0.01208   0.01435
     Eigenvalues ---    0.01443   0.01661   0.01955   0.02020   0.02094
     Eigenvalues ---    0.02194   0.02206   0.02258   0.02293   0.02316
     Eigenvalues ---    0.02362   0.02459   0.02530   0.02600   0.02622
     Eigenvalues ---    0.07399   0.07416   0.07594   0.07628   0.15999
     Eigenvalues ---    0.16000   0.16000   0.16000   0.16000   0.16000
     Eigenvalues ---    0.16000   0.16000   0.16000   0.16000   0.16000
     Eigenvalues ---    0.16000   0.22000   0.22000   0.22369   0.23506
     Eigenvalues ---    0.24602   0.24725   0.24823   0.25000   0.25000
     Eigenvalues ---    0.25000   0.25000   0.25000   0.34065   0.34072
     Eigenvalues ---    0.34146   0.34353   0.34400   0.34844   0.34845
     Eigenvalues ---    0.35271   0.35755   0.35760   0.35784   0.36115
     Eigenvalues ---    0.38225   0.38321   0.38483   0.40828   0.42441
     Eigenvalues ---    0.44805   0.46519   0.48136   0.49583   0.49640
     Eigenvalues ---    0.52668   0.56538   0.56753   0.59584   0.85129
 RFO step:  Lambda=-7.76503259D-04 EMin= 9.72439295D-03
 Linear search not attempted -- first point.
 Iteration  1 RMS(Cart)=  0.01603035 RMS(Int)=  0.00008569
 Iteration  2 RMS(Cart)=  0.00013345 RMS(Int)=  0.00000736
 Iteration  3 RMS(Cart)=  0.00000001 RMS(Int)=  0.00000736
 Variable       Old X    -DE/DX   Delta X   Delta X   Delta X     New X
                                 (Linear)    (Quad)   (Total)
    R1        2.05928  -0.00056   0.00000  -0.00162  -0.00162   2.05767
    R2        2.07221  -0.00061   0.00000  -0.00178  -0.00178   2.07042
    R3        2.73669   0.00190   0.00000   0.00492   0.00492   2.74160
    R4        2.06738  -0.00039   0.00000  -0.00112  -0.00112   2.06626
    R5        2.07085  -0.00079   0.00000  -0.00232  -0.00232   2.06853
    R6        2.74040   0.00133   0.00000   0.00348   0.00348   2.74388
    R7        2.05927  -0.00011   0.00000  -0.00032  -0.00032   2.05895
    R8        2.06660  -0.00066   0.00000  -0.00190  -0.00190   2.06470
    R9        2.53606  -0.00828   0.00000  -0.01458  -0.01458   2.52148
   R10        2.05238  -0.00032   0.00000  -0.00089  -0.00089   2.05149
   R11        2.57265   0.00726   0.00000   0.01377   0.01377   2.58642
   R12        2.73901  -0.00505   0.00000  -0.01315  -0.01315   2.72586
   R13        2.03902  -0.00006   0.00000  -0.00018  -0.00018   2.03884
   R14        2.35262   0.00874   0.00000   0.01025   0.01025   2.36288
   R15        2.80509   0.00154   0.00000   0.00451   0.00451   2.80960
   R16        2.68015  -0.00178   0.00000  -0.00432  -0.00432   2.67583
   R17        2.64963  -0.00002   0.00000  -0.00012  -0.00012   2.64952
   R18        2.51271   0.00450   0.00000   0.00754   0.00754   2.52025
   R19        2.64420  -0.00037   0.00000  -0.00088  -0.00088   2.64332
   R20        2.60774   0.00102   0.00000   0.00215   0.00214   2.60989
   R21        2.04467  -0.00013   0.00000  -0.00036  -0.00036   2.04430
   R22        1.86989   0.00136   0.00000   0.00274   0.00274   1.87263
   R23        2.04458   0.00034   0.00000   0.00096   0.00096   2.04555
   R24        2.59441   0.00089   0.00000   0.00183   0.00183   2.59624
   R25        2.62637  -0.00064   0.00000  -0.00121  -0.00121   2.62516
   R26        2.04421   0.00006   0.00000   0.00017   0.00017   2.04438
   R27        2.53790   0.00238   0.00000   0.00420   0.00420   2.54210
    A1        1.89722   0.00019   0.00000   0.00033   0.00032   1.89754
    A2        1.90860  -0.00031   0.00000  -0.00231  -0.00231   1.90629
    A3        1.89224   0.00009   0.00000   0.00079   0.00079   1.89304
    A4        1.94367  -0.00036   0.00000  -0.00232  -0.00232   1.94135
    A5        1.89453   0.00019   0.00000   0.00185   0.00185   1.89638
    A6        1.92661   0.00021   0.00000   0.00175   0.00175   1.92836
    A7        1.94307  -0.00109   0.00000  -0.00751  -0.00753   1.93554
    A8        1.89352   0.00050   0.00000   0.00376   0.00376   1.89728
    A9        1.89562   0.00053   0.00000   0.00125   0.00122   1.89684
   A10        1.91182   0.00034   0.00000   0.00318   0.00319   1.91500
   A11        1.92710  -0.00062   0.00000  -0.00423  -0.00425   1.92285
   A12        1.89166   0.00040   0.00000   0.00396   0.00397   1.89562
   A13        2.05883  -0.00012   0.00000  -0.00017  -0.00018   2.05865
   A14        2.09864   0.00049   0.00000   0.00235   0.00234   2.10098
   A15        2.11620  -0.00036   0.00000  -0.00110  -0.00111   2.11509
   A16        2.01744  -0.00087   0.00000  -0.00640  -0.00640   2.01104
   A17        2.21604  -0.00115   0.00000  -0.00521  -0.00521   2.21083
   A18        2.04968   0.00202   0.00000   0.01161   0.01161   2.06129
   A19        2.06349   0.00242   0.00000   0.01094   0.01094   2.07443
   A20        2.11390  -0.00118   0.00000  -0.00532  -0.00532   2.10858
   A21        2.10574  -0.00123   0.00000  -0.00563  -0.00563   2.10011
   A22        2.10703   0.00441   0.00000   0.01761   0.01760   2.12463
   A23        2.10037  -0.00110   0.00000  -0.00439  -0.00440   2.09598
   A24        2.07577  -0.00331   0.00000  -0.01319  -0.01320   2.06258
   A25        2.07991  -0.00107   0.00000  -0.00414  -0.00414   2.07577
   A26        2.14615   0.00084   0.00000   0.00350   0.00350   2.14964
   A27        2.05713   0.00023   0.00000   0.00064   0.00064   2.05777
   A28        2.14075  -0.00243   0.00000  -0.00956  -0.00956   2.13119
   A29        2.09733   0.00096   0.00000   0.00355   0.00355   2.10088
   A30        2.04510   0.00147   0.00000   0.00601   0.00601   2.05112
   A31        2.13762  -0.00047   0.00000  -0.00196  -0.00196   2.13566
   A32        2.08940   0.00035   0.00000   0.00167   0.00167   2.09107
   A33        2.05616   0.00012   0.00000   0.00029   0.00029   2.05646
   A34        1.85293  -0.00194   0.00000  -0.01206  -0.01206   1.84087
   A35        2.08999   0.00075   0.00000   0.00380   0.00380   2.09379
   A36        2.07573  -0.00092   0.00000  -0.00406  -0.00406   2.07168
   A37        2.11746   0.00018   0.00000   0.00026   0.00026   2.11772
   A38        2.05175  -0.00017   0.00000  -0.00016  -0.00016   2.05159
   A39        2.13176  -0.00033   0.00000  -0.00252  -0.00252   2.12925
   A40        2.09967   0.00050   0.00000   0.00268   0.00268   2.10234
   A41        2.14680   0.00037   0.00000   0.00200   0.00200   2.14880
   A42        2.07005  -0.00066   0.00000  -0.00287  -0.00287   2.06717
   A43        2.06634   0.00028   0.00000   0.00088   0.00088   2.06721
    D1       -0.23524   0.00012   0.00000   0.00469   0.00469  -0.23055
    D2        3.05234   0.00003   0.00000  -0.00340  -0.00340   3.04893
    D3        1.86187  -0.00007   0.00000   0.00211   0.00212   1.86398
    D4       -1.13374  -0.00016   0.00000  -0.00598  -0.00598  -1.13972
    D5       -2.31559   0.00007   0.00000   0.00409   0.00409  -2.31150
    D6        0.97199  -0.00002   0.00000  -0.00400  -0.00401   0.96798
    D7       -1.11672   0.00016   0.00000   0.00182   0.00181  -1.11492
    D8        1.87734   0.00033   0.00000   0.01030   0.01028   1.88762
    D9        3.07224   0.00001   0.00000  -0.00018  -0.00018   3.07206
   D10       -0.21688   0.00018   0.00000   0.00829   0.00829  -0.20859
   D11        0.99031  -0.00031   0.00000  -0.00445  -0.00444   0.98587
   D12       -2.29881  -0.00014   0.00000   0.00402   0.00403  -2.29478
   D13        3.11956  -0.00005   0.00000   0.00002   0.00003   3.11959
   D14       -0.02990  -0.00004   0.00000   0.00042   0.00042  -0.02948
   D15        0.12883  -0.00017   0.00000  -0.00843  -0.00843   0.12040
   D16       -3.02064  -0.00015   0.00000  -0.00803  -0.00803  -3.02867
   D17       -3.12022   0.00002   0.00000   0.00062   0.00061  -3.11961
   D18        0.03211   0.00003   0.00000   0.00117   0.00117   0.03329
   D19        0.01336   0.00002   0.00000   0.00095   0.00095   0.01431
   D20       -3.11748   0.00004   0.00000   0.00150   0.00150  -3.11598
   D21        0.01142   0.00008   0.00000   0.00580   0.00582   0.01723
   D22       -3.12534   0.00003   0.00000   0.00097   0.00095  -3.12439
   D23       -3.14087   0.00007   0.00000   0.00524   0.00527  -3.13560
   D24        0.00556   0.00002   0.00000   0.00042   0.00040   0.00596
   D25        3.13164   0.00002   0.00000   0.00124   0.00122   3.13286
   D26       -0.01095   0.00002   0.00000   0.00127   0.00125  -0.00970
   D27       -0.00520  -0.00005   0.00000  -0.00358  -0.00356  -0.00876
   D28        3.13539  -0.00005   0.00000  -0.00355  -0.00353   3.13186
   D29        0.00011  -0.00001   0.00000  -0.00042  -0.00042  -0.00031
   D30       -3.14143   0.00000   0.00000  -0.00020  -0.00021   3.14155
   D31       -3.14053  -0.00001   0.00000  -0.00045  -0.00045  -3.14098
   D32        0.00111   0.00000   0.00000  -0.00023  -0.00024   0.00088
   D33       -3.14130   0.00000   0.00000   0.00004   0.00004  -3.14126
   D34       -0.00018   0.00000   0.00000   0.00006   0.00006  -0.00012
   D35       -0.00070   0.00000   0.00000   0.00007   0.00007  -0.00063
   D36        3.14043   0.00000   0.00000   0.00008   0.00008   3.14051
   D37        0.00282  -0.00002   0.00000  -0.00089  -0.00089   0.00193
   D38       -3.13882  -0.00003   0.00000  -0.00110  -0.00110  -3.13992
   D39        3.14149   0.00000   0.00000  -0.00004  -0.00004   3.14145
   D40       -0.00081   0.00001   0.00000   0.00024   0.00024  -0.00057
   D41       -0.00005   0.00000   0.00000   0.00017   0.00017   0.00012
   D42        3.14083   0.00001   0.00000   0.00045   0.00045   3.14128
   D43       -0.00003   0.00000   0.00000   0.00009   0.00009   0.00006
   D44        3.14133   0.00000   0.00000   0.00011   0.00011   3.14144
   D45       -3.14116   0.00000   0.00000   0.00008   0.00008  -3.14108
   D46        0.00020   0.00000   0.00000   0.00009   0.00009   0.00029
   D47        0.00006   0.00000   0.00000  -0.00008  -0.00008  -0.00002
   D48       -3.14118   0.00000   0.00000  -0.00015  -0.00015  -3.14134
   D49        3.14093   0.00000   0.00000   0.00020   0.00020   3.14113
   D50       -0.00031   0.00000   0.00000   0.00013   0.00013  -0.00018
   D51        0.00036   0.00000   0.00000  -0.00009  -0.00009   0.00028
   D52       -3.14158   0.00000   0.00000  -0.00001  -0.00001  -3.14159
   D53       -3.14100   0.00000   0.00000  -0.00010  -0.00010  -3.14110
   D54        0.00025   0.00000   0.00000  -0.00003  -0.00003   0.00022
         Item               Value     Threshold  Converged?
 Maximum Force            0.008738     0.000450     NO 
 RMS     Force            0.001641     0.000300     NO 
 Maximum Displacement     0.052151     0.001800     NO 
 RMS     Displacement     0.016062     0.001200     NO 
 Predicted change in Energy=-3.893236D-04
 GradGradGradGradGradGradGradGradGradGradGradGradGradGradGradGradGradGrad

                          Input orientation:                          
 ---------------------------------------------------------------------
 Center     Atomic      Atomic             Coordinates (Angstroms)
 Number     Number       Type             X           Y           Z
 ---------------------------------------------------------------------
      1          6           0        3.705854    1.626659    0.036657
      2          1           0        4.749726    1.914041    0.152321
      3          1           0        3.327362    2.046795   -0.901752
      4          6           0        4.829105   -0.588415   -0.103550
      5          1           0        5.288188   -0.409107   -1.080935
      6          7           0        3.605394    0.179359    0.042595
      7          1           0        3.135292    2.053280    0.866127
      8          1           0        4.609479   -1.651525   -0.010396
      9          1           0        5.543534   -0.310423    0.674957
     10          6           0        2.410561   -0.414172    0.020597
     11          1           0        2.433288   -1.499428    0.005514
     12          6           0        1.190031    0.205158    0.023664
     13          6           0       -0.002444   -0.606443    0.024918
     14          1           0        1.116444    1.281517    0.014654
     15          8           0        0.052187   -1.855518    0.041605
     16          6           0       -1.342409    0.037481    0.006112
     17          6           0       -2.496560   -0.782805   -0.003041
     18          6           0       -1.525349    1.427535   -0.001984
     19          8           0       -2.420013   -2.114243    0.004315
     20          6           0       -3.772039   -0.208830   -0.020689
     21          6           0       -2.778318    2.008220   -0.019085
     22          1           0       -0.664954    2.083241    0.005664
     23          1           0       -1.451464   -2.323309    0.018209
     24          1           0       -4.649866   -0.842140   -0.027733
     25          6           0       -3.879079    1.160843   -0.028208
     26          1           0       -2.912603    3.081677   -0.025113
     27          9           0       -5.108190    1.707312   -0.044884
 ---------------------------------------------------------------------
                    Distance matrix (angstroms):
                    1          2          3          4          5
     1  C    0.000000
     2  H    1.088869   0.000000
     3  H    1.095619   1.775335   0.000000
     4  C    2.487550   2.516755   3.136350   0.000000
     5  H    2.810185   2.684749   3.147761   1.094619   0.000000
     6  N    1.450795   2.081023   2.111021   1.452000   2.107227
     7  H    1.093420   1.770679   1.778294   3.284483   3.806490
     8  H    3.400771   3.572031   4.014463   1.089548   1.774909
     9  H    2.745321   2.418991   3.599154   1.092594   1.777104
    10  C    2.417236   3.302971   2.783453   2.427988   3.081255
    11  H    3.375325   4.127858   3.768050   2.565498   3.243398
    12  C    2.889671   3.950730   2.969209   3.726768   4.288631
    13  C    4.328782   5.380724   4.357292   4.833290   5.408571
    14  H    2.612403   3.690499   2.512690   4.158662   4.632707
    15  O    5.047262   6.024010   5.181190   4.944245   5.546882
    16  C    5.292577   6.376281   5.164137   6.204140   6.733938
    17  C    6.654099   7.733420   6.537001   7.328933   7.867898
    18  C    5.235134   6.295798   4.974120   6.667342   7.138745
    19  O    7.177857   8.225213   7.153146   7.408744   7.968790
    20  C    7.700077   8.783906   7.501040   8.609914   9.124250
    21  C    6.495628   7.530585   6.169272   8.038814   8.487610
    22  H    4.394700   5.419309   4.094303   6.110185   6.544647
    23  H    6.496192   7.511849   6.540742   6.516918   7.091910
    24  H    8.713045   9.797004   8.529127   9.482669  10.003083
    25  C    7.599499   8.663497   7.313055   8.882457   9.360115
    26  H    6.776788   7.752815   6.385658   8.567949   8.975149
    27  F    8.814790   9.862056   8.485753  10.199197  10.660080
                    6          7          8          9         10
     6  N    0.000000
     7  H    2.100186   0.000000
     8  H    2.088811   4.082536   0.000000
     9  H    2.096701   3.379833   1.772208   0.000000
    10  C    1.334312   2.707116   2.523340   3.202261   0.000000
    11  H    2.047812   3.722258   2.181558   3.396398   1.085599
    12  C    2.415575   2.812355   3.891152   4.432043   1.368676
    13  C    3.692464   4.198469   4.728983   5.591784   2.420657
    14  H    2.722206   2.323010   4.561213   4.750727   2.133105
    15  O    4.094631   5.046194   4.562152   5.739629   2.764027
    16  C    4.949971   4.985266   6.186921   6.927092   3.780077
    17  C    6.177515   6.365265   7.158948   8.082447   4.921005
    18  C    5.280574   4.781919   6.864168   7.310804   4.345547
    19  O    6.447294   6.998027   7.044720   8.192778   5.121030
    20  C    7.387910   7.322213   8.504782   9.342063   6.186147
    21  C    6.640807   5.979667   8.244596   8.666662   5.726607
    22  H    4.675683   3.896559   6.462847   6.687519   3.961829
    23  H    5.642318   6.396235   6.098126   7.308421   4.308137
    24  H    8.318517   8.354108   9.294669  10.231417   7.073550
    25  C    7.548885   7.127249   8.942335   9.562672   6.484028
    26  H    7.135286   6.199108   8.887358   9.137981   6.368604
    27  F    8.846968   8.300881  10.281832  10.865020   7.812592
                   11         12         13         14         15
    11  H    0.000000
    12  C    2.109889   0.000000
    13  C    2.594338   1.442461   0.000000
    14  H    3.076982   1.078909   2.194631   0.000000
    15  O    2.407850   2.354017   1.250380   3.312756   0.000000
    16  C    4.076515   2.538045   1.486774   2.755658   2.351511
    17  C    4.981669   3.816771   2.500500   4.161194   2.765650
    18  C    4.923208   2.977944   2.541068   2.645877   3.642657
    19  O    4.892088   4.290968   2.849302   4.902837   2.485981
    20  C    6.338171   4.979507   3.790781   5.110738   4.164153
    21  C    6.282121   4.358974   3.813643   3.962122   4.789981
    22  H    4.736520   2.639790   2.770143   1.953515   4.003674
    23  H    3.971175   3.656592   2.246627   4.425938   1.574910
    24  H    7.113662   5.933284   4.653692   6.145082   4.810514
    25  C    6.850120   5.158672   4.260800   4.997163   4.955619
    26  H    7.040313   5.010822   4.698271   4.413091   5.759368
    27  F    8.195096   6.475241   5.605977   6.239464   6.271422
                   16         17         18         19         20
    16  C    0.000000
    17  C    1.415987   0.000000
    18  C    1.402063   2.414302   0.000000
    19  O    2.406481   1.333657   3.653033   0.000000
    20  C    2.442230   1.398787   2.779506   2.336493   0.000000
    21  C    2.438500   2.805257   1.381094   4.138071   2.429567
    22  H    2.155012   3.401335   1.081799   4.549627   3.861122
    23  H    2.363338   1.861674   3.751625   0.990953   3.139682
    24  H    3.422594   2.154264   3.861954   2.567395   1.082456
    25  C    2.774493   2.385321   2.368935   3.585543   1.373870
    26  H    3.425435   3.886875   2.158979   5.219300   3.400895
    27  F    4.119714   3.608745   3.594004   4.672580   2.336126
                   21         22         23         24         25
    21  C    0.000000
    22  H    2.114840   0.000000
    23  H    4.530350   4.476208   0.000000
    24  H    3.409885   4.943530   3.525017   0.000000
    25  C    1.389174   3.344034   4.246737   2.146171   0.000000
    26  H    1.081840   2.459622   5.599167   4.291203   2.150276
    27  F    2.349364   4.459397   5.442566   2.590378   1.345222
                   26         27
    26  H    0.000000
    27  F    2.590342   0.000000
 Stoichiometry    C11H12FNO2
 Framework group  C1[X(C11H12FNO2)]
 Deg. of freedom    75
 Full point group                 C1      NOp   1
 Largest Abelian subgroup         C1      NOp   1
 Largest concise Abelian subgroup C1      NOp   1
                         Standard orientation:                         
 ---------------------------------------------------------------------
 Center     Atomic      Atomic             Coordinates (Angstroms)
 Number     Number       Type             X           Y           Z
 ---------------------------------------------------------------------
      1          6           0        3.955493   -1.805542   -0.041201
      2          1           0        4.975032   -2.170006   -0.156715
      3          1           0        3.545428   -2.198950    0.895526
      4          6           0        5.241431    0.318679    0.106977
      5          1           0        5.684586    0.102524    1.084259
      6          7           0        3.963798   -0.354772   -0.042760
      7          1           0        3.355577   -2.185698   -0.872555
      8          1           0        5.102216    1.395536    0.016895
      9          1           0        5.933968   -0.009734   -0.671675
     10          6           0        2.816784    0.326577   -0.020115
     11          1           0        2.920767    1.407027   -0.001652
     12          6           0        1.553273   -0.199517   -0.026314
     13          6           0        0.424983    0.699180   -0.026243
     14          1           0        1.399209   -1.267355   -0.020708
     15          8           0        0.573099    1.940691   -0.039010
     16          6           0       -0.959496    0.157448   -0.010764
     17          6           0       -2.048932    1.061903   -0.000221
     18          6           0       -1.246115   -1.215002   -0.007151
     19          8           0       -1.872800    2.383874   -0.003381
     20          6           0       -3.363863    0.585092    0.014381
     21          6           0       -2.539102   -1.700189    0.006907
     22          1           0       -0.437277   -1.933327   -0.015971
     23          1           0       -0.891290    2.519797   -0.015664
     24          1           0       -4.191762    1.282391    0.022511
     25          6           0       -3.573267   -0.772722    0.017556
     26          1           0       -2.753471   -2.760574    0.009479
     27          9           0       -4.839898   -1.225576    0.031317
 ---------------------------------------------------------------------
 Rotational constants (GHZ):      1.4458210      0.2531417      0.2160681
 Standard basis: 6-311++G(d,p) (5D, 7F)
 There are   429 symmetry adapted cartesian basis functions of A   symmetry.
 There are   414 symmetry adapted basis functions of A   symmetry.
   414 basis functions,   648 primitive gaussians,   429 cartesian basis functions
    55 alpha electrons       55 beta electrons
       nuclear repulsion energy       940.6311785789 Hartrees.
 NAtoms=   27 NActive=   27 NUniq=   27 SFac= 1.00D+00 NAtFMM=   60 NAOKFM=F Big=F
 Integral buffers will be    131072 words long.
 Raffenetti 2 integral format.
 Two-electron integral symmetry is turned on.
 Nuclear repulsion after empirical dispersion term =      940.6160440357 Hartrees.
 ------------------------------------------------------------------------------
 Polarizable Continuum Model (PCM)
 =================================
 Model                : PCM (using non-symmetric T matrix).
 Atomic radii         : UFF (Universal Force Field).
 Polarization charges : Total charges.
 Charge compensation  : None.
 Solution method      : On-the-fly selection.
 Cavity type          : Scaled VdW (van der Waals Surface) (Alpha=1.100).
 Cavity algorithm     : GePol (No added spheres)
                        Default sphere list used, NSphG=   27.
                        Lebedev-Laikov grids with approx.  5.0 points / Ang**2.
                        Smoothing algorithm: Karplus/York (Gamma=1.0000).
                        Polarization charges: spherical gaussians, with
                                              point-specific exponents (IZeta= 3).
                        Self-potential: point-specific (ISelfS= 7).
                        Self-field    : sphere-specific E.n sum rule (ISelfD= 2).
 1st derivatives      : Analytical E(r).r(x)/FMM algorithm (CHGder, D1EAlg=3).
                        Cavity 1st derivative terms included.
 Solvent              : Dichloromethane, Eps=   8.930000 Eps(inf)=   2.028346
 ------------------------------------------------------------------------------
 One-electron integrals computed using PRISM.
 NBasis=   414 RedAO= T EigKep=  1.54D-06  NBF=   414
 NBsUse=   411 1.00D-06 EigRej=  7.86D-07 NBFU=   411
 Initial guess from the checkpoint file:  "2_opt_DCM.chk"
 B after Tr=     0.000000    0.000000    0.000000
         Rot=    1.000000   -0.000196   -0.000033    0.000211 Ang=  -0.03 deg.
 ExpMin= 3.60D-02 ExpMax= 1.14D+04 ExpMxC= 1.72D+03 IAcc=3 IRadAn=         5 AccDes= 0.00D+00
 Harris functional with IExCor= 4639 and IRadAn=       5 diagonalized for initial guess.
 HarFok:  IExCor= 4639 AccDes= 0.00D+00 IRadAn=         5 IDoV= 1 UseB2=F ITyADJ=14
 ICtDFT=  3500011 ScaDFX=  1.000000  1.000000  1.000000  1.000000
 FoFCou: FMM=F IPFlag=           0 FMFlag=      100000 FMFlg1=           0
         NFxFlg=           0 DoJE=T BraDBF=F KetDBF=T FulRan=T
[...]
 Alpha virt. eigenvalues --    0.08804   0.08873   0.09406   0.10392   0.10766
 Alpha virt. eigenvalues --    0.11096   0.12364   0.13191   0.13253   0.13842
 Alpha virt. eigenvalues --    0.13938   0.14618   0.15237   0.16070   0.16236
 Alpha virt. eigenvalues --    0.16527   0.16717   0.17025   0.17148   0.17293
 Alpha virt. eigenvalues --    0.18163   0.18443   0.18997   0.19021   0.19334
 Alpha virt. eigenvalues --    0.19793   0.19889   0.20753   0.21092   0.21520
 Alpha virt. eigenvalues --    0.21726   0.21767   0.21812   0.23214   0.23350
 Alpha virt. eigenvalues --    0.23761   0.24393   0.24504   0.24793   0.25662
 Alpha virt. eigenvalues --    0.26050   0.26620   0.27171   0.27250   0.27334
 Alpha virt. eigenvalues --    0.27967   0.28448   0.29248   0.29640   0.29668
 Alpha virt. eigenvalues --    0.30408   0.31042   0.32461   0.33026   0.33054
 Alpha virt. eigenvalues --    0.34000   0.34172   0.34480   0.35339   0.35401
 Alpha virt. eigenvalues --    0.36130   0.36654   0.37360   0.37700   0.38259
 Alpha virt. eigenvalues --    0.38497   0.39040   0.39295   0.39386   0.40053
 Alpha virt. eigenvalues --    0.41634   0.42435   0.42651   0.42798   0.43564
 Alpha virt. eigenvalues --    0.44059   0.44598   0.45136   0.46076   0.46181
 Alpha virt. eigenvalues --    0.48369   0.49332   0.50141   0.50935   0.51839
 Alpha virt. eigenvalues --    0.51989   0.53265   0.53930   0.55633   0.58089
 Alpha virt. eigenvalues --    0.58455   0.60173   0.60363   0.60936   0.62727
 Alpha virt. eigenvalues --    0.62874   0.64188   0.64912   0.66017   0.66616
 Alpha virt. eigenvalues --    0.66839   0.68268   0.68730   0.69504   0.69750
 Alpha virt. eigenvalues --    0.69876   0.71231   0.71264   0.72015   0.72983
 Alpha virt. eigenvalues --    0.73914   0.74023   0.74898   0.75236   0.76914
 Alpha virt. eigenvalues --    0.77473   0.79265   0.79815   0.80215   0.80717
 Alpha virt. eigenvalues --    0.81442   0.83911   0.85413   0.86387   0.87741
 Alpha virt. eigenvalues --    0.88844   0.89321   0.90318   0.93828   0.94214
 Alpha virt. eigenvalues --    0.94654   0.96437   0.96872   0.98360   0.99174
 Alpha virt. eigenvalues --    0.99757   1.01664   1.02015   1.04500   1.04669
 Alpha virt. eigenvalues --    1.05523   1.06483   1.06953   1.07402   1.09013
 Alpha virt. eigenvalues --    1.12158   1.12450   1.12725   1.14488   1.14709
 Alpha virt. eigenvalues --    1.16037   1.16593   1.18368   1.18462   1.19510
 Alpha virt. eigenvalues --    1.21005   1.23730   1.25259   1.27650   1.31054
 Alpha virt. eigenvalues --    1.31590   1.32470   1.33598   1.35860   1.38289
 Alpha virt. eigenvalues --    1.39189   1.44331   1.44725   1.46922   1.49376
 Alpha virt. eigenvalues --    1.50761   1.51653   1.52603   1.52800   1.54036
 Alpha virt. eigenvalues --    1.55227   1.57140   1.59047   1.59153   1.61128
 Alpha virt. eigenvalues --    1.62124   1.62814   1.63770   1.63864   1.64692
 Alpha virt. eigenvalues --    1.64828   1.67273   1.67855   1.68557   1.69203
 Alpha virt. eigenvalues --    1.70887   1.73241   1.73629   1.75123   1.77515
 Alpha virt. eigenvalues --    1.77803   1.79446   1.81601   1.81681   1.83445
 Alpha virt. eigenvalues --    1.83866   1.85036   1.86839   1.87670   1.92288
 Alpha virt. eigenvalues --    1.93454   1.94503   1.96803   1.98109   1.98339
 Alpha virt. eigenvalues --    2.00289   2.00767   2.03741   2.03772   2.05003
 Alpha virt. eigenvalues --    2.06901   2.07084   2.07572   2.09571   2.10032
 Alpha virt. eigenvalues --    2.12604   2.12965   2.16433   2.17745   2.17980
 Alpha virt. eigenvalues --    2.18188   2.22515   2.24588   2.25676   2.26595
 Alpha virt. eigenvalues --    2.28874   2.30226   2.33093   2.36765   2.40345
 Alpha virt. eigenvalues --    2.40696   2.43810   2.46095   2.48322   2.50914
 Alpha virt. eigenvalues --    2.51834   2.54846   2.56259   2.56915   2.59512
 Alpha virt. eigenvalues --    2.60001   2.63728   2.64310   2.64970   2.68202
 Alpha virt. eigenvalues --    2.70909   2.72061   2.72735   2.72838   2.76811
 Alpha virt. eigenvalues --    2.76904   2.78233   2.80094   2.82186   2.82782
 Alpha virt. eigenvalues --    2.83544   2.84439   2.84705   2.86424   2.88820
 Alpha virt. eigenvalues --    2.89243   2.91830   2.92277   2.94812   2.95884
 Alpha virt. eigenvalues --    2.96836   2.98799   3.01897   3.03103   3.07986
 Alpha virt. eigenvalues --    3.13633   3.15253   3.16983   3.17589   3.20568
 Alpha virt. eigenvalues --    3.21008   3.23726   3.26580   3.28680   3.29387
 Alpha virt. eigenvalues --    3.30084   3.31950   3.37852   3.41194   3.46227
 Alpha virt. eigenvalues --    3.51877   3.56391   3.60270   3.62267   3.67832
 Alpha virt. eigenvalues --    3.68436   3.71970   3.74272   3.78754   3.81385
 Alpha virt. eigenvalues --    3.81939   3.83323   3.86781   3.86850   3.89155
 Alpha virt. eigenvalues --    3.94540   3.95455   3.96111   4.02326   4.06976
 Alpha virt. eigenvalues --    4.09389   4.12446   4.17990   4.21990   4.28801
 Alpha virt. eigenvalues --    4.30482   4.39712   4.64591   4.93083   4.96448
 Alpha virt. eigenvalues --    4.98492   5.12475   5.17994   5.18882   5.41277
 Alpha virt. eigenvalues --    5.61883   5.88078   5.93967   6.42794   6.55629
 Alpha virt. eigenvalues --    6.86233  23.69916  23.94312  24.03003  24.04712
 Alpha virt. eigenvalues --   24.06209  24.07064  24.09072  24.15627  24.23617
 Alpha virt. eigenvalues --   24.27416  24.31946  35.71414  50.12423  50.19176
 Alpha virt. eigenvalues --   66.93949
          Condensed to atoms (all electrons):
               1          2          3          4          5          6
     1  C    5.253939   0.388529   0.415295  -0.057394   0.000454   0.233080
     2  H    0.388529   0.451354  -0.017364   0.003306  -0.005519  -0.046036
     3  H    0.415295  -0.017364   0.520105   0.000769  -0.001183  -0.037900
     4  C   -0.057394   0.003306   0.000769   5.171755   0.404610   0.244954
     5  H    0.000454  -0.005519  -0.001183   0.404610   0.533493  -0.042421
     6  N    0.233080  -0.046036  -0.037900   0.244954  -0.042421   6.799458
     7  H    0.415675  -0.017176  -0.053382   0.000490   0.002510  -0.038564
     8  H   -0.002466   0.003646  -0.001785   0.410925  -0.027091  -0.099293
     9  H    0.000248  -0.005549   0.002550   0.404963  -0.057998  -0.042510
    10  C    0.158645   0.028387   0.007200  -0.078741  -0.021335   0.208758
    11  H    0.008604  -0.000815   0.000105  -0.037936   0.003162  -0.058610
    12  C    0.168602   0.023142  -0.022672  -0.045634   0.009401  -0.216875
    13  C   -0.268333  -0.020406  -0.005475  -0.087327   0.000988   0.006934
    14  H    0.008109   0.001946   0.001432  -0.007746   0.000829  -0.029578
    15  O   -0.001851   0.000030   0.000405  -0.000854   0.000014   0.002890
    16  C   -0.242101  -0.007888  -0.001452   0.010017  -0.000043  -0.011465
    17  C   -0.035998  -0.000054  -0.000601  -0.002739  -0.000321   0.004266
    18  C    0.005660  -0.004335  -0.001392  -0.012427   0.000416  -0.006684
    19  O   -0.000089  -0.000007   0.000038   0.000373   0.000005  -0.000152
    20  C    0.006302   0.000315  -0.000849  -0.000449  -0.000001  -0.000149
    21  C    0.004001   0.000169   0.001495   0.000714   0.000010  -0.000450
    22  H    0.006554   0.000370  -0.003034  -0.001680  -0.000081  -0.006079
    23  H   -0.001206  -0.000110   0.000021  -0.000010   0.000021   0.000098
    24  H    0.000070   0.000003  -0.000012   0.000017   0.000000  -0.000027
    25  C   -0.002141  -0.000068   0.000132  -0.000478  -0.000004  -0.000205
    26  H   -0.001111  -0.000071   0.000116   0.000087   0.000003   0.000195
    27  F    0.000010   0.000000   0.000000   0.000000   0.000000   0.000000
               7          8          9         10         11         12
     1  C    0.415675  -0.002466   0.000248   0.158645   0.008604   0.168602
     2  H   -0.017176   0.003646  -0.005549   0.028387  -0.000815   0.023142
     3  H   -0.053382  -0.001785   0.002550   0.007200   0.000105  -0.022672
     4  C    0.000490   0.410925   0.404963  -0.078741  -0.037936  -0.045634
     5  H    0.002510  -0.027091  -0.057998  -0.021335   0.003162   0.009401
     6  N   -0.038564  -0.099293  -0.042510   0.208758  -0.058610  -0.216875
     7  H    0.520771  -0.001728  -0.001221   0.006913   0.000266  -0.021605
     8  H   -0.001728   0.532048  -0.026984   0.066070  -0.011126  -0.000271
     9  H   -0.001221  -0.026984   0.533604  -0.020744   0.003200   0.008562
    10  C    0.006913   0.066070  -0.020744  11.659217   0.335110   2.702095
    11  H    0.000266  -0.011126   0.003200   0.335110   0.456946   0.082374
    12  C   -0.021605  -0.000271   0.008562   2.702095   0.082374  12.215054
    13  C   -0.005038   0.003798   0.000581  -3.691950   0.070615   1.558394
    14  H   -0.000126  -0.003295   0.000998   0.089717   0.000436   0.546765
    15  O    0.000444   0.000396   0.000004   0.003631   0.007699  -0.268971
    16  C   -0.001806   0.006189  -0.000063  -2.690891  -0.088213  -5.067411
    17  C   -0.000628   0.003754  -0.000328  -1.396708  -0.070444  -3.911681
    18  C   -0.000841  -0.004060   0.000383  -1.610616   0.052112  -0.557528
    19  O    0.000040  -0.000101   0.000005   0.016711   0.000135  -0.030119
    20  C   -0.000803   0.000076  -0.000002  -0.174044  -0.001618   0.011902
    21  C    0.001448  -0.000227   0.000006   0.155337   0.003044  -0.196978
    22  H   -0.002573   0.000473  -0.000104  -0.134906   0.002519  -0.014153
    23  H    0.000023   0.000032   0.000020  -0.018732   0.000775   0.004691
    24  H   -0.000011   0.000002   0.000000   0.000111  -0.000132  -0.000572
    25  C    0.000149  -0.000022  -0.000003  -0.175024  -0.000816  -0.464086
    26  H    0.000090   0.000001   0.000003   0.005024  -0.000256  -0.017398
    27  F    0.000000   0.000000   0.000000   0.000533   0.000017   0.003846
              13         14         15         16         17         18
     1  C   -0.268333   0.008109  -0.001851  -0.242101  -0.035998   0.005660
     2  H   -0.020406   0.001946   0.000030  -0.007888  -0.000054  -0.004335
     3  H   -0.005475   0.001432   0.000405  -0.001452  -0.000601  -0.001392
     4  C   -0.087327  -0.007746  -0.000854   0.010017  -0.002739  -0.012427
     5  H    0.000988   0.000829   0.000014  -0.000043  -0.000321   0.000416
     6  N    0.006934  -0.029578   0.002890  -0.011465   0.004266  -0.006684
     7  H   -0.005038  -0.000126   0.000444  -0.001806  -0.000628  -0.000841
     8  H    0.003798  -0.003295   0.000396   0.006189   0.003754  -0.004060
     9  H    0.000581   0.000998   0.000004  -0.000063  -0.000328   0.000383
    10  C   -3.691950   0.089717   0.003631  -2.690891  -1.396708  -1.610616
    11  H    0.070615   0.000436   0.007699  -0.088213  -0.070444   0.052112
    12  C    1.558394   0.546765  -0.268971  -5.067411  -3.911681  -0.557528
    13  C   12.888580  -0.032084   0.884299   0.918001  -4.727428   0.778432
    14  H   -0.032084   0.582752  -0.014129  -0.073405  -0.004249  -0.129209
    15  O    0.884299  -0.014129   8.246563  -0.106912  -0.120743  -0.231560
    16  C    0.918001  -0.073405  -0.106912  18.494388   2.652899  -4.753834
    17  C   -4.727428  -0.004249  -0.120743   2.652899  16.938787  -4.662833
    18  C    0.778432  -0.129209  -0.231560  -4.753834  -4.662833  15.777550
    19  O   -0.023717  -0.000538  -0.004802   0.065026   0.327220  -0.039127
    20  C   -0.460201  -0.023717  -0.049730  -2.878104   0.012018   1.684136
    21  C   -0.443405  -0.062847   0.005580  -1.052295   0.633786   0.365077
    22  H    0.017660  -0.027941  -0.000211  -0.304101  -0.049255   0.788007
    23  H    0.028272  -0.001120   0.076584  -0.128810  -0.007454   0.048228
    24  H    0.005557  -0.000846   0.000121  -0.080642  -0.041897   0.026472
    25  C   -0.854289  -0.014840  -0.022435  -0.900503  -0.008104   0.470031
    26  H   -0.017652   0.004947   0.000617   0.133821   0.071122  -0.071709
    27  F    0.007443  -0.000342  -0.000019   0.017101  -0.083125  -0.057696
              19         20         21         22         23         24
     1  C   -0.000089   0.006302   0.004001   0.006554  -0.001206   0.000070
     2  H   -0.000007   0.000315   0.000169   0.000370  -0.000110   0.000003
     3  H    0.000038  -0.000849   0.001495  -0.003034   0.000021  -0.000012
     4  C    0.000373  -0.000449   0.000714  -0.001680  -0.000010   0.000017
     5  H    0.000005  -0.000001   0.000010  -0.000081   0.000021   0.000000
     6  N   -0.000152  -0.000149  -0.000450  -0.006079   0.000098  -0.000027
     7  H    0.000040  -0.000803   0.001448  -0.002573   0.000023  -0.000011
     8  H   -0.000101   0.000076  -0.000227   0.000473   0.000032   0.000002
     9  H    0.000005  -0.000002   0.000006  -0.000104   0.000020   0.000000
    10  C    0.016711  -0.174044   0.155337  -0.134906  -0.018732   0.000111
    11  H    0.000135  -0.001618   0.003044   0.002519   0.000775  -0.000132
    12  C   -0.030119   0.011902  -0.196978  -0.014153   0.004691  -0.000572
    13  C   -0.023717  -0.460201  -0.443405   0.017660   0.028272   0.005557
    14  H   -0.000538  -0.023717  -0.062847  -0.027941  -0.001120  -0.000846
    15  O   -0.004802  -0.049730   0.005580  -0.000211   0.076584   0.000121
    16  C    0.065026  -2.878104  -1.052295  -0.304101  -0.128810  -0.080642
    17  C    0.327220   0.012018   0.633786  -0.049255  -0.007454  -0.041897
    18  C   -0.039127   1.684136   0.365077   0.788007   0.048228   0.026472
    19  O    8.191472  -0.390478   0.015531  -0.003072   0.239647  -0.019559
    20  C   -0.390478  10.780009  -2.446903   0.158763   0.066712   0.665317
    21  C    0.015531  -2.446903   9.286638  -0.113458   0.012195  -0.080216
    22  H   -0.003072   0.158763  -0.113458   0.541472   0.002150   0.003625
    23  H    0.239647   0.066712   0.012195   0.002150   0.294434   0.001456
    24  H   -0.019559   0.665317  -0.080216   0.003625   0.001456   0.439184
    25  C   -0.000193  -0.276759  -0.006058   0.056894  -0.000355  -0.167359
    26  H    0.000415  -0.129111   0.527935  -0.027527   0.000379  -0.002064
    27  F   -0.000710  -0.225544  -0.212272   0.002864  -0.000187  -0.020534
              25         26         27
     1  C   -0.002141  -0.001111   0.000010
     2  H   -0.000068  -0.000071   0.000000
     3  H    0.000132   0.000116   0.000000
     4  C   -0.000478   0.000087   0.000000
     5  H   -0.000004   0.000003   0.000000
     6  N   -0.000205   0.000195   0.000000
     7  H    0.000149   0.000090   0.000000
     8  H   -0.000022   0.000001   0.000000
     9  H   -0.000003   0.000003   0.000000
    10  C   -0.175024   0.005024   0.000533
    11  H   -0.000816  -0.000256   0.000017
    12  C   -0.464086  -0.017398   0.003846
    13  C   -0.854289  -0.017652   0.007443
    14  H   -0.014840   0.004947  -0.000342
    15  O   -0.022435   0.000617  -0.000019
    16  C   -0.900503   0.133821   0.017101
    17  C   -0.008104   0.071122  -0.083125
    18  C    0.470031  -0.071709  -0.057696
    19  O   -0.000193   0.000415  -0.000710
    20  C   -0.276759  -0.129111  -0.225544
    21  C   -0.006058   0.527935  -0.212272
    22  H    0.056894  -0.027527   0.002864
    23  H   -0.000355   0.000379  -0.000187
    24  H   -0.167359  -0.002064  -0.020534
    25  C    8.564380  -0.181016   0.600550
    26  H   -0.181016   0.447447  -0.025397
    27  F    0.600550  -0.025397   9.158381
 Mulliken charges:
               1
     1  C   -0.461088
     2  H    0.224200
     3  H    0.197437
     4  C   -0.319568
     5  H    0.200080
     6  N    0.136366
     7  H    0.196682
     8  H    0.151039
     9  H    0.200379
    10  C    0.570234
    11  H    0.242847
    12  C   -0.498872
    13  C   -0.532250
    14  H    0.188079
    15  O   -0.407059
    16  C    2.092496
    17  C    0.480738
    18  C   -1.852652
    19  O   -0.343954
    20  C   -0.327088
    21  C   -0.397860
    22  H    0.106825
    23  H    0.382243
    24  H    0.271935
    25  C   -0.617378
    26  H    0.281111
    27  F   -0.164920
 Sum of Mulliken charges =   0.00000
 Mulliken charges with hydrogens summed into heavy atoms:
               1
     1  C    0.157231
     4  C    0.231929
     6  N    0.136366
    10  C    0.813081
    12  C   -0.310793
    13  C   -0.532250
    15  O   -0.407059
    16  C    2.092496
    17  C    0.480738
    18  C   -1.745828
    19  O    0.038290
    20  C   -0.055153
    21  C   -0.116750
    25  C   -0.617378
    27  F   -0.164920
 Electronic spatial extent (au):  <R**2>=           4721.6218
 Charge=              0.0000 electrons
 Dipole moment (field-independent basis, Debye):
    X=              9.5793    Y=             -4.9849    Z=             -0.0036  Tot=             10.7987
 Quadrupole moment (field-independent basis, Debye-Ang):
   XX=            -63.2352   YY=            -89.1030   ZZ=            -90.9913
   XY=             -4.2271   XZ=             -0.0476   YZ=             -0.0064
 Traceless Quadrupole moment (field-independent basis, Debye-Ang):
   XX=             17.8747   YY=             -7.9932   ZZ=             -9.8815
   XY=             -4.2271   XZ=             -0.0476   YZ=             -0.0064
 Octapole moment (field-independent basis, Debye-Ang**2):
  XXX=            231.2922  YYY=            -37.9290  ZZZ=             -0.0840  XYY=             19.4335
  XXY=              1.6672  XXZ=             -0.0901  XZZ=             -0.8918  YZZ=              1.4816
  YYZ=              0.0582  XYZ=              0.1360
 Hexadecapole moment (field-independent basis, Debye-Ang**3):
 XXXX=          -4315.4317 YYYY=           -948.9750 ZZZZ=           -109.9649 XXXY=           -147.4251
 XXXZ=             -0.2264 YYYX=             51.1358 YYYZ=             -0.0885 ZZZX=              0.0436
 ZZZY=              0.1137 XXYY=           -941.1603 XXZZ=           -855.2761 YYZZ=           -181.6109
 XXYZ=              0.2260 YYXZ=             -0.3364 ZZXY=              2.7896
 N-N= 9.401863664976D+02 E-N=-3.591624137233D+03  KE= 7.286802635450D+02
 1\1\GINC-DN58\FOpt\RwB97XD\6-311++G(d,p)\C11H12F1N1O2\CA12053\18-Oct-2
 016\0\\# wb97xd 6-311++g** opt geom=allcheck SCRF=(PCM,solvent=dichlor
 omethane)\\Geom Opt s0\\0,1\C,3.7015890906,1.6280744531,-0.0122932648\
 H,4.7522767099,1.9124113152,-0.0100345883\H,3.2241470934,2.0554474456,
 -0.8989494561\C,4.8367745774,-0.5862623892,-0.0311725671\H,5.426809823
 1,-0.3443442704,-0.9190672711\N,3.6000744359,0.178802527,-0.0227610498
 \H,3.2238752,2.0424288724,0.8803491877\H,4.6082775804,-1.6510080785,-0
 .040405908\H,5.4292313366,-0.3600451946,0.8592744559\C,2.4118676344,-0
 .4171949606,-0.0236848337\H,2.4335972329,-1.502504421,-0.0314261501\C,
 1.1866511555,0.2020144243,-0.0159691836\C,0.0027256409,-0.6058224118,-
 0.0165188344\H,1.1164092829,1.2784433166,-0.0079428813\O,0.0619665911,
 -1.8590191064,-0.0219048996\C,-1.3430506997,0.0344860892,-0.0094569065
 \C,-2.5004594182,-0.7828733647,-0.0001163353\C,-1.5247307751,1.4243076
 005,-0.0117878812\O,-2.4313675707,-2.1166528788,0.0013819681\C,-3.7742
 125049,-0.2061807368,0.0080996899\C,-2.7771447658,2.0086739226,-0.0045
 259248\H,-0.664390038,2.0800906707,-0.0202152\H,-1.45981591,-2.3296559
 395,-0.0079108085\H,-4.6541831309,-0.8362349294,0.0155282709\C,-3.8780
 43807,1.164027488,0.0057011738\H,-2.9073406941,3.0825920954,-0.0068475
 49\F,-5.1083777102,1.7127601813,0.013193197\\Version=ES64L-G09RevD.01\
 State=1-A\HF=-731.4075533\RMSD=4.882e-09\RMSF=2.014e-06\Dipole=3.90556
 98,1.6722302,-0.0102654\Quadrupole=13.6519353,-6.3052825,-7.3466528,1.
 6649226,-0.0396375,-0.0118328\PG=C01 [X(C11H12F1N1O2)]\\@


 HE THAT WALD REACHE THE SWEITE ROSE
 SULD NOW AND THEN BE SCRATCHED WT THE SCHARPE BREERES.
 -- PROVERBS AND REASONS OF THE YEAR 1585
           AS REPRINTED IN PAISLEY MAGAZINE 1828.
 Job cpu time:       0 days 10 hours 46 minutes 35.6 seconds.
 File lengths (MBytes):  RWF=    251 Int=      0 D2E=      0 Chk=     15 Scr=      1
 Normal termination of Gaussian 09 at Tue Oct 18 19:51:09 2016.
