 Entering Gaussian System, Link 0=g09
 Input=3_opt_DCM.com
 Output=3_opt_DCM.out
 Initial command:
 /share/apps/gaussian/g09_D01/g09/l1.exe "/tmp/3820384.1.serial.q/Gau-8015.inp" -scrdir="/tmp/3820384.1.serial.q/"
 Entering Link 1 = /share/apps/gaussian/g09_D01/g09/l1.exe PID=      8016.
  
 Copyright (c) 1988,1990,1992,1993,1995,1998,2003,2009,2013,
            Gaussian, Inc.  All Rights Reserved.
  
 This is part of the Gaussian(R) 09 program.  It is based on
 the Gaussian(R) 03 system (copyright 2003, Gaussian, Inc.),
 the Gaussian(R) 98 system (copyright 1998, Gaussian, Inc.),
 the Gaussian(R) 94 system (copyright 1995, Gaussian, Inc.),
 the Gaussian 92(TM) system (copyright 1992, Gaussian, Inc.),
 the Gaussian 90(TM) system (copyright 1990, Gaussian, Inc.),
 the Gaussian 88(TM) system (copyright 1988, Gaussian, Inc.),
 the Gaussian 86(TM) system (copyright 1986, Carnegie Mellon
 University), and the Gaussian 82(TM) system (copyright 1983,
 Carnegie Mellon University). Gaussian is a federally registered
 trademark of Gaussian, Inc.
  
 This software contains proprietary and confidential information,
 including trade secrets, belonging to Gaussian, Inc.
  
 This software is provided under written license and may be
 used, copied, transmitted, or stored only in accord with that
 written license.
  
 The following legend is applicable only to US Government
 contracts under FAR:
  
                    RESTRICTED RIGHTS LEGEND
  
 Use, reproduction and disclosure by the US Government is
 subject to restrictions as set forth in subparagraphs (a)
 and (c) of the Commercial Computer Software - Restricted
 Rights clause in FAR 52.227-19.
  
 Gaussian, Inc.
 340 Quinnipiac St., Bldg. 40, Wallingford CT 06492
  
  
 ---------------------------------------------------------------
 Warning -- This program may not be used in any manner that
 competes with the business of Gaussian, Inc. or will provide
 assistance to any competitor of Gaussian, Inc.  The licensee
 of this program is prohibited from giving any competitor of
 Gaussian, Inc. access to this program.  By using this program,
 the user acknowledges that Gaussian, Inc. is engaged in the
 business of creating and licensing software in the field of
 computational chemistry and represents and warrants to the
 licensee that it is not a competitor of Gaussian, Inc. and that
 it will not use this program in any manner prohibited above.
 ---------------------------------------------------------------
  

 Cite this work as:
 Gaussian 09, Revision D.01,
 M. J. Frisch, G. W. Trucks, H. B. Schlegel, G. E. Scuseria, 
 M. A. Robb, J. R. Cheeseman, G. Scalmani, V. Barone, B. Mennucci, 
 G. A. Petersson, H. Nakatsuji, M. Caricato, X. Li, H. P. Hratchian, 
 A. F. Izmaylov, J. Bloino, G. Zheng, J. L. Sonnenberg, M. Hada, 
 M. Ehara, K. Toyota, R. Fukuda, J. Hasegawa, M. Ishida, T. Nakajima, 
 Y. Honda, O. Kitao, H. Nakai, T. Vreven, J. A. Montgomery, Jr., 
 J. E. Peralta, F. Ogliaro, M. Bearpark, J. J. Heyd, E. Brothers, 
 K. N. Kudin, V. N. Staroverov, T. Keith, R. Kobayashi, J. Normand, 
 K. Raghavachari, A. Rendell, J. C. Burant, S. S. Iyengar, J. Tomasi, 
 M. Cossi, N. Rega, J. M. Millam, M. Klene, J. E. Knox, J. B. Cross, 
 V. Bakken, C. Adamo, J. Jaramillo, R. Gomperts, R. E. Stratmann, 
 O. Yazyev, A. J. Austin, R. Cammi, C. Pomelli, J. W. Ochterski, 
 R. L. Martin, K. Morokuma, V. G. Zakrzewski, G. A. Voth, 
 P. Salvador, J. J. Dannenberg, S. Dapprich, A. D. Daniels, 
 O. Farkas, J. B. Foresman, J. V. Ortiz, J. Cioslowski, 
 and D. J. Fox, Gaussian, Inc., Wallingford CT, 2013.
 
 ******************************************
 Gaussian 09:  ES64L-G09RevD.01 24-Apr-2013
                19-Oct-2016 
 ******************************************
 %chk=3_opt_DCM.chk
 %mem=2GB
 %nproc=4
 Will use up to    4 processors via shared memory.
 ----------------------------------------------------------------------
 # wb97xd 6-311++g** opt geom=allcheck SCRF=(PCM,solvent=dichloromethan
 e)
 ----------------------------------------------------------------------
 1/14=-1,18=20,19=15,26=3,29=7,38=1/1,3;
 2/9=110,12=2,40=1/2;
 3/5=4,6=6,7=1111,11=2,14=-4,16=1,25=1,30=1,70=2201,71=1,72=9,74=-58/1,2,3;
 4//1;
 5/5=2,38=5,53=9/2;
 6/7=2,8=2,9=2,10=2,28=1/1;
 7//1,2,3,16;
 1/14=-1,18=20,19=15,26=3/3(2);
 2/9=110/2;
 99//99;
 2/9=110/2;
 3/5=4,6=6,7=1111,11=2,14=-2,16=1,25=1,30=1,70=2205,71=1,72=9,74=-58/1,2,3;
 4/5=5,16=3,69=1/1;
 5/5=2,38=5,53=9/2;
 7//1,2,3,16;
 1/14=-1,18=20,19=15,26=3/3(-5);
 2/9=110/2;
 6/7=2,8=2,9=2,10=2,19=2,28=1/1;
 99/9=1/99;
 Structure from the checkpoint file:  "3_opt_DCM.chk"
 -----------
 Geom Opt s0
 -----------
 Charge =  0 Multiplicity = 1
 Redundant internal coordinates found in file.
 C,0,3.666802186,1.6388632261,0.2994840829
 H,0,4.7056905543,1.9312806991,0.452139733
 H,0,3.2509954845,2.2346791465,-0.5226710145
 C,0,4.8249902604,-0.4408326703,-0.4019458013
 H,0,5.1890646357,-0.049292834,-1.3591353873
 N,0,3.604025453,0.2219270716,0.0121213902
 H,0,3.1064936458,1.866773561,1.2107828422
 H,0,4.639153745,-1.508835586,-0.5141518102
 H,0,5.6069681099,-0.3044343083,0.350397946
 C,0,2.4135023149,-0.3960306255,-0.084261833
 H,0,2.452452271,-1.4530769622,-0.3310548016
 C,0,1.1850044149,0.1554583888,0.1032496224
 C,0,0.0206812677,-0.705596019,-0.0149764221
 H,0,1.0728995181,1.2051428453,0.3274627254
 O,0,0.1562457084,-1.9207965086,-0.2505354747
 C,0,-1.3410371282,-0.1481366744,0.1402066456
 C,0,-2.4674301869,-1.0100178076,0.040395463
 C,0,-1.5903665356,1.20617947,0.3844830565
 O,0,-2.3434098833,-2.3159713557,-0.1941591074
 C,0,-3.7549116743,-0.5038881491,0.1883379172
 C,0,-2.8652170341,1.7193529233,0.5300920196
 H,0,-0.7607854101,1.8970637941,0.462839592
 H,0,-1.3744918601,-2.4904728844,-0.2759412093
 H,0,-4.6015966233,-1.1734054625,0.1107712023
 C,0,-3.9576684261,0.8463488721,0.4307325501
 H,0,-2.9974349069,2.7759109845,0.7163558039
 O,0,-5.2467048937,1.2335877991,0.5564787522
 C,0,-5.524824059,2.5961106487,0.8001859812
 H,0,-5.1636040001,3.2303214372,-0.0166111477
 H,0,-6.6091029663,2.6722750659,0.8608963031
 H,0,-5.0856919916,2.9311151941,1.7461666805
 Recover connectivity data from disk.

 GradGradGradGradGradGradGradGradGradGradGradGradGradGradGradGradGradGrad
 Berny optimization.
 Initialization pass.
                           ----------------------------
                           !    Initial Parameters    !
                           ! (Angstroms and Degrees)  !
 --------------------------                            --------------------------
 ! Name  Definition              Value          Derivative Info.                !
 --------------------------------------------------------------------------------
 ! R1    R(1,2)                  1.09           estimate D2E/DX2                !
 ! R2    R(1,3)                  1.0972         estimate D2E/DX2                !
 ! R3    R(1,6)                  1.4471         estimate D2E/DX2                !
 ! R4    R(1,7)                  1.0938         estimate D2E/DX2                !
 ! R5    R(4,5)                  1.0964         estimate D2E/DX2                !
 ! R6    R(4,6)                  1.4496         estimate D2E/DX2                !
 ! R7    R(4,8)                  1.0898         estimate D2E/DX2                !
 ! R8    R(4,9)                  1.0937         estimate D2E/DX2                !
 ! R9    R(6,10)                 1.3448         estimate D2E/DX2                !
 ! R10   R(10,11)                1.0862         estimate D2E/DX2                !
 ! R11   R(10,12)                1.3596         estimate D2E/DX2                !
 ! R12   R(12,13)                1.4529         estimate D2E/DX2                !
 ! R13   R(12,14)                1.0792         estimate D2E/DX2                !
 ! R14   R(13,15)                1.2452         estimate D2E/DX2                !
 ! R15   R(13,16)                1.4796         estimate D2E/DX2                !
 ! R16   R(16,17)                1.4218         estimate D2E/DX2                !
 ! R17   R(16,18)                1.3986         estimate D2E/DX2                !
 ! R18   R(17,19)                1.3326         estimate D2E/DX2                !
 ! R19   R(17,20)                1.3913         estimate D2E/DX2                !
 ! R20   R(18,21)                1.382          estimate D2E/DX2                !
 ! R21   R(18,22)                1.0824         estimate D2E/DX2                !
 ! R22   R(19,23)                0.9879         estimate D2E/DX2                !
 ! R23   R(20,24)                1.0822         estimate D2E/DX2                !
 ! R24   R(20,25)                1.3867         estimate D2E/DX2                !
 ! R25   R(21,25)                1.4019         estimate D2E/DX2                !
 ! R26   R(21,26)                1.081          estimate D2E/DX2                !
 ! R27   R(25,27)                1.3518         estimate D2E/DX2                !
 ! R28   R(27,28)                1.4118         estimate D2E/DX2                !
 ! R29   R(28,29)                1.0954         estimate D2E/DX2                !
 ! R30   R(28,30)                1.0886         estimate D2E/DX2                !
 ! R31   R(28,31)                1.0954         estimate D2E/DX2                !
 ! A1    A(2,1,3)              108.691          estimate D2E/DX2                !
 ! A2    A(2,1,6)              109.3798         estimate D2E/DX2                !
 ! A3    A(2,1,7)              108.4008         estimate D2E/DX2                !
 ! A4    A(3,1,6)              111.4978         estimate D2E/DX2                !
 ! A5    A(3,1,7)              108.483          estimate D2E/DX2                !
 ! A6    A(6,1,7)              110.3187         estimate D2E/DX2                !
 ! A7    A(5,4,6)              111.4559         estimate D2E/DX2                !
 ! A8    A(5,4,8)              108.4635         estimate D2E/DX2                !
 ! A9    A(5,4,9)              108.5784         estimate D2E/DX2                !
 ! A10   A(6,4,8)              109.5006         estimate D2E/DX2                !
 ! A11   A(6,4,9)              110.4081         estimate D2E/DX2                !
 ! A12   A(8,4,9)              108.3585         estimate D2E/DX2                !
 ! A13   A(1,6,4)              117.8934         estimate D2E/DX2                !
 ! A14   A(1,6,10)             120.1693         estimate D2E/DX2                !
 ! A15   A(4,6,10)             121.0021         estimate D2E/DX2                !
 ! A16   A(6,10,11)            115.5774         estimate D2E/DX2                !
 ! A17   A(6,10,12)            127.1307         estimate D2E/DX2                !
 ! A18   A(11,10,12)           117.2896         estimate D2E/DX2                !
 ! A19   A(10,12,13)           118.1952         estimate D2E/DX2                !
 ! A20   A(10,12,14)           121.1343         estimate D2E/DX2                !
 ! A21   A(13,12,14)           120.6693         estimate D2E/DX2                !
 ! A22   A(12,13,15)           120.4304         estimate D2E/DX2                !
 ! A23   A(12,13,16)           120.3783         estimate D2E/DX2                !
 ! A24   A(15,13,16)           119.1912         estimate D2E/DX2                !
 ! A25   A(13,16,17)           119.5619         estimate D2E/DX2                !
 ! A26   A(13,16,18)           123.178          estimate D2E/DX2                !
 ! A27   A(17,16,18)           117.26           estimate D2E/DX2                !
 ! A28   A(16,17,19)           122.1864         estimate D2E/DX2                !
 ! A29   A(16,17,20)           120.34           estimate D2E/DX2                !
 ! A30   A(19,17,20)           117.4736         estimate D2E/DX2                !
 ! A31   A(16,18,21)           122.8505         estimate D2E/DX2                !
 ! A32   A(16,18,22)           119.6094         estimate D2E/DX2                !
 ! A33   A(21,18,22)           117.5398         estimate D2E/DX2                !
 ! A34   A(17,19,23)           106.1975         estimate D2E/DX2                !
 ! A35   A(17,20,24)           119.4275         estimate D2E/DX2                !
 ! A36   A(17,20,25)           120.5378         estimate D2E/DX2                !
 ! A37   A(24,20,25)           120.0346         estimate D2E/DX2                !
 ! A38   A(18,21,25)           118.6948         estimate D2E/DX2                !
 ! A39   A(18,21,26)           119.6002         estimate D2E/DX2                !
 ! A40   A(25,21,26)           121.705          estimate D2E/DX2                !
 ! A41   A(20,25,21)           120.3165         estimate D2E/DX2                !
 ! A42   A(20,25,27)           115.7602         estimate D2E/DX2                !
 ! A43   A(21,25,27)           123.9232         estimate D2E/DX2                !
 ! A44   A(25,27,28)           118.7092         estimate D2E/DX2                !
 ! A45   A(27,28,29)           111.4133         estimate D2E/DX2                !
 ! A46   A(27,28,30)           105.8638         estimate D2E/DX2                !
 ! A47   A(27,28,31)           111.4227         estimate D2E/DX2                !
 ! A48   A(29,28,30)           109.2397         estimate D2E/DX2                !
 ! A49   A(29,28,31)           109.5533         estimate D2E/DX2                !
 ! A50   A(30,28,31)           109.2516         estimate D2E/DX2                !
 ! D1    D(2,1,6,4)            -17.4568         estimate D2E/DX2                !
 ! D2    D(2,1,6,10)           173.4973         estimate D2E/DX2                !
 ! D3    D(3,1,6,4)            102.7856         estimate D2E/DX2                !
 ! D4    D(3,1,6,10)           -66.2603         estimate D2E/DX2                !
 ! D5    D(7,1,6,4)           -136.6053         estimate D2E/DX2                !
 ! D6    D(7,1,6,10)            54.3488         estimate D2E/DX2                !
 ! D7    D(5,4,6,1)            -63.9039         estimate D2E/DX2                !
 ! D8    D(5,4,6,10)           105.0464         estimate D2E/DX2                !
 ! D9    D(8,4,6,1)            176.0849         estimate D2E/DX2                !
 ! D10   D(8,4,6,10)           -14.9649         estimate D2E/DX2                !
 ! D11   D(9,4,6,1)             56.8585         estimate D2E/DX2                !
 ! D12   D(9,4,6,10)          -134.1913         estimate D2E/DX2                !
 ! D13   D(1,6,10,11)          178.2649         estimate D2E/DX2                !
 ! D14   D(1,6,10,12)           -2.3042         estimate D2E/DX2                !
 ! D15   D(4,6,10,11)            9.5643         estimate D2E/DX2                !
 ! D16   D(4,6,10,12)         -171.0048         estimate D2E/DX2                !
 ! D17   D(6,10,12,13)        -178.3493         estimate D2E/DX2                !
 ! D18   D(6,10,12,14)           2.0524         estimate D2E/DX2                !
 ! D19   D(11,10,12,13)          1.0731         estimate D2E/DX2                !
 ! D20   D(11,10,12,14)       -178.5252         estimate D2E/DX2                !
 ! D21   D(10,12,13,15)          1.6683         estimate D2E/DX2                !
 ! D22   D(10,12,13,16)       -178.1962         estimate D2E/DX2                !
 ! D23   D(14,12,13,15)       -178.7314         estimate D2E/DX2                !
 ! D24   D(14,12,13,16)          1.404          estimate D2E/DX2                !
 ! D25   D(12,13,16,17)       -179.0908         estimate D2E/DX2                !
 ! D26   D(12,13,16,18)          0.9145         estimate D2E/DX2                !
 ! D27   D(15,13,16,17)          1.043          estimate D2E/DX2                !
 ! D28   D(15,13,16,18)       -178.9517         estimate D2E/DX2                !
 ! D29   D(13,16,17,19)         -0.1972         estimate D2E/DX2                !
 ! D30   D(13,16,17,20)        179.773          estimate D2E/DX2                !
 ! D31   D(18,16,17,19)        179.7978         estimate D2E/DX2                !
 ! D32   D(18,16,17,20)         -0.232          estimate D2E/DX2                !
 ! D33   D(13,16,18,21)       -179.9111         estimate D2E/DX2                !
 ! D34   D(13,16,18,22)          0.2842         estimate D2E/DX2                !
 ! D35   D(17,16,18,21)          0.0941         estimate D2E/DX2                !
 ! D36   D(17,16,18,22)       -179.7106         estimate D2E/DX2                !
 ! D37   D(16,17,19,23)         -0.422          estimate D2E/DX2                !
 ! D38   D(20,17,19,23)        179.607          estimate D2E/DX2                !
 ! D39   D(16,17,20,24)       -179.9243         estimate D2E/DX2                !
 ! D40   D(16,17,20,25)          0.1957         estimate D2E/DX2                !
 ! D41   D(19,17,20,24)          0.0472         estimate D2E/DX2                !
 ! D42   D(19,17,20,25)       -179.8327         estimate D2E/DX2                !
 ! D43   D(16,18,21,25)          0.0818         estimate D2E/DX2                !
 ! D44   D(16,18,21,26)       -179.9096         estimate D2E/DX2                !
 ! D45   D(22,18,21,25)        179.8903         estimate D2E/DX2                !
 ! D46   D(22,18,21,26)         -0.1011         estimate D2E/DX2                !
 ! D47   D(17,20,25,21)         -0.0134         estimate D2E/DX2                !
 ! D48   D(17,20,25,27)        179.9181         estimate D2E/DX2                !
 ! D49   D(24,20,25,21)       -179.8927         estimate D2E/DX2                !
 ! D50   D(24,20,25,27)          0.0389         estimate D2E/DX2                !
 ! D51   D(18,21,25,20)         -0.1243         estimate D2E/DX2                !
 ! D52   D(18,21,25,27)        179.95           estimate D2E/DX2                !
 ! D53   D(26,21,25,20)        179.8669         estimate D2E/DX2                !
 ! D54   D(26,21,25,27)         -0.0588         estimate D2E/DX2                !
 ! D55   D(20,25,27,28)       -179.8063         estimate D2E/DX2                !
 ! D56   D(21,25,27,28)          0.1224         estimate D2E/DX2                !
 ! D57   D(25,27,28,29)         61.2021         estimate D2E/DX2                !
 ! D58   D(25,27,28,30)        179.849          estimate D2E/DX2                !
 ! D59   D(25,27,28,31)        -61.4846         estimate D2E/DX2                !
 --------------------------------------------------------------------------------
 Trust Radius=3.00D-01 FncErr=1.00D-07 GrdErr=1.00D-06
 Number of steps in this run=    150 maximum allowed number of steps=    186.
 GradGradGradGradGradGradGradGradGradGradGradGradGradGradGradGradGradGrad

                          Input orientation:                          
 ---------------------------------------------------------------------
 Center     Atomic      Atomic             Coordinates (Angstroms)
 Number     Number       Type             X           Y           Z
 ---------------------------------------------------------------------
      1          6           0        3.666802    1.638863    0.299484
      2          1           0        4.705691    1.931281    0.452140
      3          1           0        3.250995    2.234679   -0.522671
      4          6           0        4.824990   -0.440833   -0.401946
      5          1           0        5.189065   -0.049293   -1.359135
      6          7           0        3.604025    0.221927    0.012121
      7          1           0        3.106494    1.866774    1.210783
      8          1           0        4.639154   -1.508836   -0.514152
      9          1           0        5.606968   -0.304434    0.350398
     10          6           0        2.413502   -0.396031   -0.084262
     11          1           0        2.452452   -1.453077   -0.331055
     12          6           0        1.185004    0.155458    0.103250
     13          6           0        0.020681   -0.705596   -0.014976
     14          1           0        1.072900    1.205143    0.327463
     15          8           0        0.156246   -1.920797   -0.250535
     16          6           0       -1.341037   -0.148137    0.140207
     17          6           0       -2.467430   -1.010018    0.040395
     18          6           0       -1.590367    1.206179    0.384483
     19          8           0       -2.343410   -2.315971   -0.194159
     20          6           0       -3.754912   -0.503888    0.188338
     21          6           0       -2.865217    1.719353    0.530092
     22          1           0       -0.760785    1.897064    0.462840
     23          1           0       -1.374492   -2.490473   -0.275941
     24          1           0       -4.601597   -1.173405    0.110771
     25          6           0       -3.957668    0.846349    0.430733
     26          1           0       -2.997435    2.775911    0.716356
     27          8           0       -5.246705    1.233588    0.556479
     28          6           0       -5.524824    2.596111    0.800186
     29          1           0       -5.163604    3.230321   -0.016611
     30          1           0       -6.609103    2.672275    0.860896
     31          1           0       -5.085692    2.931115    1.746167
 ---------------------------------------------------------------------
                    Distance matrix (angstroms):
                    1          2          3          4          5
     1  C    0.000000
     2  H    1.090000   0.000000
     3  H    1.097192   1.777201   0.000000
     4  C    2.481640   2.524008   3.106509   0.000000
     5  H    2.813925   2.727094   3.110034   1.096387   0.000000
     6  N    1.447144   2.080666   2.112298   1.449640   2.113352
     7  H    1.093780   1.771195   1.777948   3.298359   3.822681
     8  H    3.393446   3.573870   3.992613   1.089842   1.773884
     9  H    2.746496   2.412690   3.572108   1.093670   1.778270
    10  C    2.420499   3.310322   2.795395   2.432736   3.073967
    11  H    3.381171   4.140574   3.778086   2.580426   3.242932
    12  C    2.897985   3.958598   2.997208   3.722940   4.267668
    13  C    4.346214   5.396353   4.397488   4.827135   5.380491
    14  H    2.630062   3.706749   2.554755   4.161665   4.621800
    15  O    5.029682   6.002474   5.188402   4.900040   5.482772
    16  C    5.319511   6.401890   5.215744   6.196733   6.700748
    17  C    6.686741   7.763661   6.598901   7.327962   7.842423
    18  C    5.275629   6.338035   5.031851   6.669927   7.111758
    19  O    7.211591   8.255100   7.218983   7.412508   7.951929
    20  C    7.725644   8.808032   7.555661   8.600414   9.088237
    21  C    6.536584   7.574274   6.227514   8.042039   8.459831
    22  H    4.438117   5.466594   4.144828   6.116740   6.519863
    23  H    6.541955   7.553186   6.616878   6.530734   7.086109
    24  H    8.735610   9.817393   8.583676   9.468901   9.964000
    25  C    7.666672   8.731055   7.402788   8.915452   9.363147
    26  H    6.773383   7.753796   6.393043   8.531610   8.905516
    27  O    8.926416   9.977366   8.624248  10.254819  10.687406
    28  C    9.254892  10.258000   8.882319  10.852963  11.244921
    29  H    8.978236   9.965451   8.488397  10.648844  10.942394
    30  H   10.342986  11.346396   9.966308  11.917412  12.309843
    31  H    8.964874   9.927001   8.667930  10.686723  11.139854
                    6          7          8          9         10
     6  N    0.000000
     7  H    2.095196   0.000000
     8  H    2.084225   4.088910   0.000000
     9  H    2.098396   3.421517   1.770507   0.000000
    10  C    1.344807   2.697714   2.525206   3.224212   0.000000
    11  H    2.061439   3.718392   2.195062   3.425599   1.086173
    12  C    2.421649   2.801312   3.883582   4.452679   1.359598
    13  C    3.701539   4.200215   4.714304   5.612578   2.413757
    14  H    2.733633   2.313766   4.559842   4.778821   2.128495
    15  O    4.067854   5.018476   4.509509   5.717003   2.729059
    16  C    4.960544   4.998652   6.167850   6.952941   3.769404
    17  C    6.195245   6.380781   7.145619   8.111095   4.920978
    18  C    5.299916   4.814525   6.854617   7.354233   4.337945
    19  O    6.469580   7.012180   7.036338   8.218962   5.130932
    20  C    7.396744   7.331051   8.483145   9.365406   6.175377
    21  C    6.660456   6.012188   8.235729   8.712401   5.719891
    22  H    4.696893   3.939059   6.458638   6.738510   3.953948
    23  H    5.676771   6.424576   6.097892   7.342469   4.332705
    24  H    8.323997   8.358670   9.267929  10.248284   7.060734
    25  C    7.598970   7.179981   8.963540   9.633952   6.511570
    26  H    7.113231   6.191036   8.842550   9.146486   6.323009
    27  O    8.924977   8.402676  10.314908  10.964041   7.857797
    28  C    9.465394   8.671803  11.040132  11.512266   8.529489
    29  H    9.269444   8.471144  10.899597  11.341711   8.400449
    30  H   10.537202   9.755207  12.078730  12.583871   9.576807
    31  H    9.265949   8.278367  10.926794  11.258327   8.405848
                   11         12         13         14         15
    11  H    0.000000
    12  C    2.093426   0.000000
    13  C    2.563619   1.452942   0.000000
    14  H    3.066422   1.079202   2.208020   0.000000
    15  O    2.344741   2.344001   1.245222   3.308449   0.000000
    16  C    4.039247   2.544488   1.479567   2.773720   2.353053
    17  C    4.953738   3.834392   2.507277   4.186082   2.792460
    18  C    4.891628   2.980904   2.531784   2.663877   3.637565
    19  O    4.874794   4.318116   2.866067   4.933711   2.531328
    20  C    6.300960   4.984451   3.786440   5.123271   4.182988
    21  C    6.251679   4.362597   3.808659   3.976711   4.794716
    22  H    4.709417   2.636018   2.759137   1.964556   3.990728
    23  H    3.965442   3.700778   2.280438   4.473410   1.633504
    24  H    7.073403   5.937229   4.647592   6.156651   4.829720
    25  C    6.852542   5.199198   4.293537   5.044404   5.004549
    26  H    6.977297   4.973477   4.665272   4.380202   5.739307
    27  O    8.202616   6.537176   5.642017   6.323817   6.308192
    28  C    9.017348   7.173862   6.505258   6.759306   7.333554
    29  H    8.946363   7.055068   6.509091   6.566103   7.408747
    30  H   10.027515   8.225357   7.492076   7.839017   8.252365
    31  H    8.964352   7.051601   6.511708   6.551332   7.416588
                   16         17         18         19         20
    16  C    0.000000
    17  C    1.421817   0.000000
    18  C    1.398574   2.408146   0.000000
    19  O    2.411651   1.332633   3.647937   0.000000
    20  C    2.440423   1.391281   2.765513   2.328580   0.000000
    21  C    2.441854   2.801339   1.381953   4.132876   2.418916
    22  H    2.150263   3.397384   1.082435   4.548188   3.847689
    23  H    2.379251   1.867172   3.761383   0.987897   3.135039
    24  H    3.418083   2.141568   3.847707   2.549087   1.082195
    25  C    2.814279   2.412316   2.394940   3.605078   1.386725
    26  H    3.409642   3.882149   2.134019   5.213833   3.407295
    27  O    4.163735   3.608944   3.660484   4.646714   2.319439
    28  C    5.046835   4.788434   4.193408   5.936217   3.621732
    29  H    5.103978   5.025244   4.126264   6.224659   3.996341
    30  H    6.018857   5.602317   5.250154   6.647697   4.322818
    31  H    5.107185   5.029660   4.128787   6.230320   3.999632
                   21         22         23         24         25
    21  C    0.000000
    22  H    2.112992   0.000000
    23  H    4.538126   4.491426   0.000000
    24  H    3.399838   4.929865   3.506910   0.000000
    25  C    1.401948   3.365278   4.278618   2.143928   0.000000
    26  H    1.080967   2.416453   5.599410   4.305481   2.174129
    27  O    2.430668   4.535685   5.436505   2.531489   1.351807
    28  C    2.813390   4.826855   6.652566   3.941687   2.377843
    29  H    2.804370   4.625177   6.866739   4.441271   2.708823
    30  H    3.877393   5.912886   7.439591   4.402502   3.247946
    31  H    2.806727   4.628283   6.874267   4.444767   2.710914
                   26         27         28         29         30
    26  H    0.000000
    27  O    2.731947   0.000000
    28  C    2.535163   1.411812   0.000000
    29  H    2.331527   2.079010   1.095382   0.000000
    30  H    3.616045   2.004649   1.088645   1.780703   0.000000
    31  H    2.333542   2.079154   1.095420   1.789687   1.780866
                   31
    31  H    0.000000
 Stoichiometry    C12H15NO3
 Framework group  C1[X(C12H15NO3)]
 Deg. of freedom    87
 Full point group                 C1      NOp   1
 Largest Abelian subgroup         C1      NOp   1
 Largest concise Abelian subgroup C1      NOp   1
                         Standard orientation:                         
 ---------------------------------------------------------------------
 Center     Atomic      Atomic             Coordinates (Angstroms)
 Number     Number       Type             X           Y           Z
 ---------------------------------------------------------------------
      1          6           0       -4.167874   -2.044747    0.092329
      2          1           0       -5.148594   -2.496697    0.240750
      3          1           0       -3.741675   -2.428729   -0.842948
      4          6           0       -5.623223   -0.051328   -0.166089
      5          1           0       -6.003949   -0.318155   -1.159023
      6          7           0       -4.302651   -0.604219    0.061636
      7          1           0       -3.519255   -2.347994    0.919184
      8          1           0       -5.580193    1.035239   -0.093462
      9          1           0       -6.325800   -0.419341    0.586949
     10          6           0       -3.208279    0.176222    0.019578
     11          1           0       -3.396056    1.244845   -0.030957
     12          6           0       -1.910443   -0.228150    0.044349
     13          6           0       -0.873798    0.789722    0.025818
     14          1           0       -1.652817   -1.275826    0.070432
     15          8           0       -1.176036    1.997692    0.019495
     16          6           0        0.554282    0.403080    0.011213
     17          6           0        1.554618    1.413470    0.012786
     18          6           0        0.987028   -0.926767   -0.004492
     19          8           0        1.252594    2.711386    0.023196
     20          6           0        2.902329    1.068129    0.003939
     21          6           0        2.322946   -1.280287   -0.016277
     22          1           0        0.257613   -1.726503   -0.010976
     23          1           0        0.266143    2.764796    0.021788
     24          1           0        3.651383    1.849191    0.006518
     25          6           0        3.288343   -0.263707   -0.010595
     26          1           0        2.598591   -2.325433   -0.029702
     27          8           0        4.621209   -0.489008   -0.019953
     28          6           0        5.083424   -1.822875   -0.039107
     29          1           0        4.745829   -2.350239   -0.937871
     30          1           0        6.170292   -1.761118   -0.046387
     31          1           0        4.758803   -2.371632    0.851641
 ---------------------------------------------------------------------
 Rotational constants (GHZ):      1.2020463      0.2153038      0.1833307
 Standard basis: 6-311++G(d,p) (5D, 7F)
 There are   473 symmetry adapted cartesian basis functions of A   symmetry.
 There are   457 symmetry adapted basis functions of A   symmetry.
   457 basis functions,   711 primitive gaussians,   473 cartesian basis functions
    59 alpha electrons       59 beta electrons
       nuclear repulsion energy      1047.4138058972 Hartrees.
 NAtoms=   31 NActive=   31 NUniq=   31 SFac= 1.00D+00 NAtFMM=   60 NAOKFM=F Big=F
 Integral buffers will be    131072 words long.
 Raffenetti 2 integral format.
 Two-electron integral symmetry is turned on.
 Nuclear repulsion after empirical dispersion term =     1047.3960473561 Hartrees.
 ------------------------------------------------------------------------------
 Polarizable Continuum Model (PCM)
 =================================
 Model                : PCM (using non-symmetric T matrix).
 Atomic radii         : UFF (Universal Force Field).
 Polarization charges : Total charges.
 Charge compensation  : None.
 Solution method      : On-the-fly selection.
 Cavity type          : Scaled VdW (van der Waals Surface) (Alpha=1.100).
 Cavity algorithm     : GePol (No added spheres)
                        Default sphere list used, NSphG=   31.
                        Lebedev-Laikov grids with approx.  5.0 points / Ang**2.
                        Smoothing algorithm: Karplus/York (Gamma=1.0000).
                        Polarization charges: spherical gaussians, with
                                              point-specific exponents (IZeta= 3).
                        Self-potential: point-specific (ISelfS= 7).
                        Self-field    : sphere-specific E.n sum rule (ISelfD= 2).
 1st derivatives      : Analytical E(r).r(x)/FMM algorithm (CHGder, D1EAlg=3).
                        Cavity 1st derivative terms included.
 Solvent              : Dichloromethane, Eps=   8.930000 Eps(inf)=   2.028346
 ------------------------------------------------------------------------------
 One-electron integrals computed using PRISM.
 NBasis=   457 RedAO= T EigKep=  1.21D-06  NBF=   457
 NBsUse=   454 1.00D-06 EigRej=  4.66D-07 NBFU=   454
 ExpMin= 3.60D-02 ExpMax= 8.59D+03 ExpMxC= 1.30D+03 IAcc=3 IRadAn=         5 AccDes= 0.00D+00
 Harris functional with IExCor= 4639 and IRadAn=       5 diagonalized for initial guess.
 HarFok:  IExCor= 4639 AccDes= 0.00D+00 IRadAn=         5 IDoV= 1 UseB2=F ITyADJ=14
 ICtDFT=  3500011 ScaDFX=  1.000000  1.000000  1.000000  1.000000
 FoFCou: FMM=F IPFlag=           0 FMFlag=      100000 FMFlg1=           0
         NFxFlg=           0 DoJE=T BraDBF=F KetDBF=T FulRan=T
         wScrn=  0.000000 ICntrl=     500 IOpCl=  0 I1Cent=   200000004 NGrid=           0
         NMat0=    1 NMatS0=      1 NMatT0=    0 NMatD0=    1 NMtDS0=    0 NMtDT0=    0
 Petite list used in FoFCou.
 Requested convergence on RMS density matrix=1.00D-08 within 128 cycles.
 Requested convergence on MAX density matrix=1.00D-06.
 Requested convergence on             energy=1.00D-06.
 No special actions if energy rises.
 Inv3:  Mode=1 IEnd=    16722963.
 Iteration    1 A*A^-1 deviation from unit magnitude is 4.22D-15 for    575.
 Iteration    1 A*A^-1 deviation from orthogonality  is 4.00D-15 for   2361   1367.
 Iteration    1 A^-1*A deviation from unit magnitude is 5.11D-15 for    580.
 Iteration    1 A^-1*A deviation from orthogonality  is 2.19D-11 for   1484   1475.
 Error on total polarization charges =  0.01428
 SCF Done:  E(RwB97XD) =  -746.687797449     A.U. after   17 cycles
            NFock= 17  Conv=0.33D-08     -V/T= 2.0039

 **********************************************************************

            Population analysis using the SCF density.

 **********************************************************************

 Orbital symmetries:
       Occupied  (A) (A) (A) (A) (A) (A) (A) (A) (A) (A) (A) (A)
                 (A) (A) (A) (A) (A) (A) (A) (A) (A) (A) (A) (A)
                 (A) (A) (A) (A) (A) (A) (A) (A) (A) (A) (A) (A)
                 (A) (A) (A) (A) (A) (A) (A) (A) (A) (A) (A) (A)
                 (A) (A) (A) (A) (A) (A) (A) (A) (A) (A) (A)
       Virtual   (A) (A) (A) (A) (A) (A) (A) (A) (A) (A) (A) (A)
                 (A) (A) (A) (A) (A) (A) (A) (A) (A) (A) (A) (A)
                 (A) (A) (A) (A) (A) (A) (A) (A) (A) (A) (A) (A)
                 (A) (A) (A) (A) (A) (A) (A) (A) (A) (A) (A) (A)
                 (A) (A) (A) (A) (A) (A) (A) (A) (A) (A) (A) (A)
                 (A) (A) (A) (A) (A) (A) (A) (A) (A) (A) (A) (A)
                 (A) (A) (A) (A) (A) (A) (A) (A) (A) (A) (A) (A)
                 (A) (A) (A) (A) (A) (A) (A) (A) (A) (A) (A) (A)
                 (A) (A) (A) (A) (A) (A) (A) (A) (A) (A) (A) (A)
                 (A) (A) (A) (A) (A) (A) (A) (A) (A) (A) (A) (A)
                 (A) (A) (A) (A) (A) (A) (A) (A) (A) (A) (A) (A)
                 (A) (A) (A) (A) (A) (A) (A) (A) (A) (A) (A) (A)
                 (A) (A) (A) (A) (A) (A) (A) (A) (A) (A) (A) (A)
                 (A) (A) (A) (A) (A) (A) (A) (A) (A) (A) (A) (A)
                 (A) (A) (A) (A) (A) (A) (A) (A) (A) (A) (A) (A)
                 (A) (A) (A) (A) (A) (A) (A) (A) (A) (A) (A) (A)
                 (A) (A) (A) (A) (A) (A) (A) (A) (A) (A) (A) (A)
                 (A) (A) (A) (A) (A) (A) (A) (A) (A) (A) (A) (A)
                 (A) (A) (A) (A) (A) (A) (A) (A) (A) (A) (A) (A)
                 (A) (A) (A) (A) (A) (A) (A) (A) (A) (A) (A) (A)
                 (A) (A) (A) (A) (A) (A) (A) (A) (A) (A) (A) (A)
                 (A) (A) (A) (A) (A) (A) (A) (A) (A) (A) (A) (A)
                 (A) (A) (A) (A) (A) (A) (A) (A) (A) (A) (A) (A)
                 (A) (A) (A) (A) (A) (A) (A) (A) (A) (A) (A) (A)
                 (A) (A) (A) (A) (A) (A) (A) (A) (A) (A) (A) (A)
                 (A) (A) (A) (A) (A) (A) (A) (A) (A) (A) (A) (A)
                 (A) (A) (A) (A) (A) (A) (A) (A) (A) (A) (A) (A)
                 (A) (A) (A) (A) (A) (A) (A) (A) (A) (A) (A) (A)
                 (A) (A) (A) (A) (A) (A) (A) (A) (A) (A) (A) (A)
                 (A) (A) (A) (A) (A) (A) (A) (A) (A) (A) (A) (A)
                 (A) (A) (A) (A) (A) (A) (A) (A) (A) (A) (A) (A)
                 (A) (A) (A) (A) (A) (A) (A) (A) (A) (A) (A) (A)
                 (A) (A) (A) (A) (A) (A) (A) (A) (A) (A) (A)
 The electronic state is 1-A.
 Alpha  occ. eigenvalues --  -19.29108 -19.26759 -19.22879 -14.48272 -10.37875
 Alpha  occ. eigenvalues --  -10.36520 -10.36434 -10.34242 -10.33642 -10.32136
 Alpha  occ. eigenvalues --  -10.32005 -10.30664 -10.29626 -10.28885 -10.28223
 Alpha  occ. eigenvalues --  -10.27148  -1.18827  -1.17686  -1.13594  -1.07792
 Alpha  occ. eigenvalues --   -0.96686  -0.89343  -0.87514  -0.85141  -0.83757
 Alpha  occ. eigenvalues --   -0.81720  -0.78826  -0.73091  -0.71247  -0.69447
 Alpha  occ. eigenvalues --   -0.65006  -0.63393  -0.62396  -0.60675  -0.58794
 Alpha  occ. eigenvalues --   -0.57363  -0.57082  -0.56875  -0.55816  -0.53476
 Alpha  occ. eigenvalues --   -0.52527  -0.52396  -0.51349  -0.49943  -0.49734
 Alpha  occ. eigenvalues --   -0.48923  -0.48484  -0.48186  -0.47860  -0.46492
 Alpha  occ. eigenvalues --   -0.45610  -0.44858  -0.42091  -0.41077  -0.40516
 Alpha  occ. eigenvalues --   -0.34746  -0.31969  -0.31135  -0.28677
 Alpha virt. eigenvalues --    0.00141   0.03853   0.04510   0.05227   0.05285
 Alpha virt. eigenvalues --    0.05912   0.06227   0.06930   0.07400   0.07713
 Alpha virt. eigenvalues --    0.07951   0.08543   0.08964   0.09448   0.09595
 Alpha virt. eigenvalues --    0.10027   0.10407   0.11590   0.11806   0.13012
 Alpha virt. eigenvalues --    0.13531   0.13715   0.14086   0.14321   0.15057
 Alpha virt. eigenvalues --    0.15314   0.15516   0.16190   0.16330   0.16648
 Alpha virt. eigenvalues --    0.17240   0.17667   0.17747   0.18117   0.18239
 Alpha virt. eigenvalues --    0.18567   0.18960   0.19190   0.19776   0.20044
 Alpha virt. eigenvalues --    0.20226   0.20470   0.21105   0.21427   0.21618
 Alpha virt. eigenvalues --    0.21774   0.22442   0.22529   0.22786   0.23250
 Alpha virt. eigenvalues --    0.24123   0.24381   0.24699   0.25125   0.25288
 Alpha virt. eigenvalues --    0.25930   0.26047   0.26362   0.26522   0.27023
 Alpha virt. eigenvalues --    0.27493   0.27904   0.28652   0.29220   0.29879
 Alpha virt. eigenvalues --    0.30272   0.30439   0.31113   0.31413   0.31900
 Alpha virt. eigenvalues --    0.32940   0.33175   0.33853   0.33996   0.34551
 Alpha virt. eigenvalues --    0.35086   0.35384   0.35646   0.35916   0.36434
 Alpha virt. eigenvalues --    0.36768   0.37281   0.37467   0.37877   0.38472
 Alpha virt. eigenvalues --    0.39067   0.39166   0.39696   0.39986   0.40548
 Alpha virt. eigenvalues --    0.41086   0.41648   0.42279   0.42596   0.42964
 Alpha virt. eigenvalues --    0.43149   0.44349   0.44846   0.45349   0.45806
 Alpha virt. eigenvalues --    0.47403   0.47510   0.48822   0.49910   0.51061
 Alpha virt. eigenvalues --    0.52314   0.52637   0.53539   0.53986   0.54365
 Alpha virt. eigenvalues --    0.56253   0.58629   0.59094   0.60181   0.61009
 Alpha virt. eigenvalues --    0.61783   0.62082   0.63392   0.64676   0.64942
 Alpha virt. eigenvalues --    0.65867   0.66211   0.67599   0.68538   0.68711
 Alpha virt. eigenvalues --    0.69251   0.69841   0.71060   0.71394   0.71591
 Alpha virt. eigenvalues --    0.72003   0.72733   0.73186   0.73230   0.73594
 Alpha virt. eigenvalues --    0.74610   0.75343   0.75496   0.76459   0.78145
 Alpha virt. eigenvalues --    0.78731   0.79111   0.80093   0.80601   0.80941
 Alpha virt. eigenvalues --    0.82013   0.83982   0.84514   0.84622   0.86692
 Alpha virt. eigenvalues --    0.87338   0.88304   0.88761   0.89812   0.90689
 Alpha virt. eigenvalues --    0.95393   0.95572   0.96091   0.97322   0.97953
 Alpha virt. eigenvalues --    0.98522   0.99457   1.00594   1.01049   1.03293
 Alpha virt. eigenvalues --    1.03450   1.05097   1.05985   1.06110   1.07152
 Alpha virt. eigenvalues --    1.08284   1.09313   1.10394   1.11357   1.11708
 Alpha virt. eigenvalues --    1.12907   1.14181   1.14776   1.16133   1.16248
 Alpha virt. eigenvalues --    1.17142   1.17266   1.19121   1.19530   1.20827
 Alpha virt. eigenvalues --    1.22171   1.23142   1.26362   1.28162   1.30849
 Alpha virt. eigenvalues --    1.31714   1.32592   1.33446   1.36316   1.37590
 Alpha virt. eigenvalues --    1.38268   1.38574   1.39270   1.43751   1.46301
 Alpha virt. eigenvalues --    1.47198   1.48387   1.51759   1.52389   1.52815
 Alpha virt. eigenvalues --    1.53757   1.55041   1.57424   1.58754   1.59892
 Alpha virt. eigenvalues --    1.60225   1.61412   1.63295   1.63412   1.64380
 Alpha virt. eigenvalues --    1.64534   1.65603   1.66066   1.67020   1.68069
 Alpha virt. eigenvalues --    1.68544   1.69587   1.70145   1.72236   1.74069
 Alpha virt. eigenvalues --    1.74765   1.76881   1.77685   1.77824   1.78135
 Alpha virt. eigenvalues --    1.79191   1.80661   1.82150   1.82245   1.82888
 Alpha virt. eigenvalues --    1.83374   1.85058   1.86930   1.87777   1.88862
 Alpha virt. eigenvalues --    1.91707   1.92937   1.94703   1.96937   1.97510
 Alpha virt. eigenvalues --    1.98220   1.98749   2.01200   2.02768   2.04493
 Alpha virt. eigenvalues --    2.05466   2.05940   2.07706   2.08071   2.09357
 Alpha virt. eigenvalues --    2.10483   2.11881   2.13863   2.14744   2.16070
 Alpha virt. eigenvalues --    2.17538   2.20298   2.20596   2.21141   2.22697
 Alpha virt. eigenvalues --    2.25154   2.25439   2.26270   2.28944   2.29611
 Alpha virt. eigenvalues --    2.30035   2.33634   2.37314   2.40478   2.41201
 Alpha virt. eigenvalues --    2.43683   2.46859   2.47973   2.52103   2.52719
 Alpha virt. eigenvalues --    2.53709   2.55944   2.56341   2.57593   2.57892
 Alpha virt. eigenvalues --    2.59957   2.60964   2.61408   2.63639   2.64499
 Alpha virt. eigenvalues --    2.66227   2.67431   2.69241   2.72132   2.72310
 Alpha virt. eigenvalues --    2.72899   2.73748   2.76549   2.77328   2.79074
 Alpha virt. eigenvalues --    2.79451   2.82376   2.82977   2.83725   2.84750
 Alpha virt. eigenvalues --    2.85646   2.87148   2.88586   2.89918   2.91622
 Alpha virt. eigenvalues --    2.92528   2.93062   2.95720   2.96591   2.97993
 Alpha virt. eigenvalues --    2.98595   2.99781   3.02254   3.04144   3.08335
 Alpha virt. eigenvalues --    3.11413   3.13943   3.14541   3.15178   3.18634
 Alpha virt. eigenvalues --    3.19951   3.21190   3.23839   3.24038   3.25754
 Alpha virt. eigenvalues --    3.27306   3.30095   3.30219   3.31966   3.34315
 Alpha virt. eigenvalues --    3.37276   3.42451   3.43971   3.51708   3.55281
 Alpha virt. eigenvalues --    3.57976   3.60948   3.63002   3.67944   3.68423
 Alpha virt. eigenvalues --    3.72737   3.74369   3.76356   3.81126   3.81697
 Alpha virt. eigenvalues --    3.85318   3.86679   3.87519   3.90021   3.93638
 Alpha virt. eigenvalues --    3.94672   3.95983   4.03046   4.10099   4.13149
 Alpha virt. eigenvalues --    4.18851   4.20732   4.27769   4.30102   4.33478
 Alpha virt. eigenvalues --    4.39997   4.65508   4.94941   4.99872   5.12834
 Alpha virt. eigenvalues --    5.13798   5.18315   5.18677   5.43383   5.50897
 Alpha virt. eigenvalues --    5.61641   5.86737   5.92477   5.96170  23.74165
 Alpha virt. eigenvalues --   23.94781  24.03561  24.05365  24.06145  24.06302
 Alpha virt. eigenvalues --   24.07612  24.09018  24.15657  24.24623  24.30945
 Alpha virt. eigenvalues --   24.31908  35.71136  50.10031  50.13100  50.19634
          Condensed to atoms (all electrons):
               1          2          3          4          5          6
     1  C    5.327823   0.388851   0.413967  -0.080798   0.016567   0.250324
     2  H    0.388851   0.464381  -0.016790   0.001027  -0.005842  -0.045966
     3  H    0.413967  -0.016790   0.515159  -0.009022   0.000754  -0.050506
     4  C   -0.080798   0.001027  -0.009022   5.196130   0.393762   0.248520
     5  H    0.016567  -0.005842   0.000754   0.393762   0.544042  -0.044593
     6  N    0.250324  -0.045966  -0.050506   0.248520  -0.044593   6.783206
     7  H    0.409289  -0.021694  -0.051114   0.011948   0.001661  -0.029144
     8  H   -0.001737   0.004087  -0.000712   0.409767  -0.032255  -0.086920
     9  H   -0.017214  -0.003111   0.003415   0.413420  -0.059255  -0.042341
    10  C    0.054854   0.021423  -0.016712  -0.034783  -0.052292   0.235196
    11  H    0.011300  -0.000914  -0.002850  -0.033198   0.005795  -0.061103
    12  C    0.576202   0.043545  -0.016255  -0.084148   0.033114  -0.255895
    13  C   -0.511728  -0.026837   0.028145  -0.101803   0.001679   0.014937
    14  H    0.044404   0.002062  -0.010095  -0.006180   0.000688  -0.028003
    15  O   -0.001745   0.000087   0.000072  -0.000576  -0.000176   0.002481
    16  C   -0.373475  -0.011820   0.012639   0.018866  -0.003164  -0.009512
    17  C   -0.071067  -0.001403   0.001926  -0.001397  -0.000700   0.007577
    18  C    0.026586  -0.002787  -0.000090  -0.013097   0.000863  -0.002811
    19  O   -0.000015  -0.000003   0.000037   0.000244   0.000006  -0.000162
    20  C   -0.000974   0.000016  -0.000737  -0.000531   0.000005   0.000444
    21  C    0.006264   0.000260  -0.000249   0.000716   0.000012   0.000667
    22  H   -0.006131  -0.000229  -0.000094  -0.001529  -0.000075  -0.006347
    23  H   -0.001099  -0.000085   0.000068   0.000168  -0.000001   0.000083
    24  H    0.000062   0.000002  -0.000015   0.000020   0.000001  -0.000014
    25  C   -0.004793  -0.000107  -0.000010  -0.000262  -0.000023   0.000443
    26  H   -0.000293  -0.000031   0.000026   0.000094   0.000004   0.000323
    27  O    0.000003   0.000000   0.000003   0.000001   0.000000   0.000000
    28  C   -0.000096  -0.000002   0.000007   0.000005   0.000000   0.000004
    29  H    0.000004   0.000000   0.000002  -0.000001   0.000000  -0.000003
    30  H    0.000002   0.000000  -0.000001   0.000000   0.000000   0.000000
    31  H   -0.000009   0.000000   0.000002  -0.000001   0.000000  -0.000003
               7          8          9         10         11         12
     1  C    0.409289  -0.001737  -0.017214   0.054854   0.011300   0.576202
     2  H   -0.021694   0.004087  -0.003111   0.021423  -0.000914   0.043545
     3  H   -0.051114  -0.000712   0.003415  -0.016712  -0.002850  -0.016255
     4  C    0.011948   0.409767   0.413420  -0.034783  -0.033198  -0.084148
     5  H    0.001661  -0.032255  -0.059255  -0.052292   0.005795   0.033114
     6  N   -0.029144  -0.086920  -0.042341   0.235196  -0.061103  -0.255895
     7  H    0.531260  -0.002880  -0.001496   0.034334   0.002847  -0.069412
     8  H   -0.002880   0.525748  -0.023358   0.051807  -0.010092  -0.014267
     9  H   -0.001496  -0.023358   0.541837  -0.008362   0.000662   0.009751
    10  C    0.034334   0.051807  -0.008362  11.404855   0.262478   1.630371
    11  H    0.002847  -0.010092   0.000662   0.262478   0.468710   0.170847
    12  C   -0.069412  -0.014267   0.009751   1.630371   0.170847  23.592521
    13  C   -0.018240   0.012725   0.001003  -3.982955   0.075227   0.279792
    14  H    0.012316  -0.004888   0.000677  -0.047526   0.000780   1.081351
    15  O    0.000851   0.001320   0.000056   0.174031   0.009208  -0.366311
    16  C    0.013488   0.013321   0.000990  -1.107973  -0.102889 -11.526085
    17  C    0.002557   0.004422  -0.000070  -1.136039  -0.064908  -5.951378
    18  C   -0.007039  -0.002992   0.000204  -1.521263   0.045662   0.113380
    19  O    0.000025  -0.000034  -0.000002   0.023520  -0.000184  -0.015839
    20  C   -0.000931   0.000212   0.000021  -0.466244  -0.008631  -0.894514
    21  C    0.000255  -0.000037  -0.000066   0.295139   0.000320  -0.590543
    22  H   -0.004581   0.000669  -0.000155  -0.125779   0.002694  -0.282706
    23  H   -0.000013   0.000048   0.000031  -0.007603   0.000472  -0.000982
    24  H   -0.000021   0.000001   0.000001  -0.001302  -0.000216   0.002413
    25  C   -0.000147   0.000124  -0.000004  -0.119648  -0.002033  -1.084999
    26  H    0.000061  -0.000008   0.000006   0.006809  -0.000282   0.021041
    27  O    0.000004   0.000000   0.000000   0.001190   0.000026   0.003047
    28  C   -0.000003   0.000002   0.000000   0.003084  -0.000064  -0.013564
    29  H    0.000006   0.000000   0.000000  -0.000054   0.000011  -0.000490
    30  H   -0.000002   0.000000   0.000000   0.000113  -0.000002   0.000141
    31  H    0.000006   0.000000   0.000000  -0.000125   0.000009  -0.001136
              13         14         15         16         17         18
     1  C   -0.511728   0.044404  -0.001745  -0.373475  -0.071067   0.026586
     2  H   -0.026837   0.002062   0.000087  -0.011820  -0.001403  -0.002787
     3  H    0.028145  -0.010095   0.000072   0.012639   0.001926  -0.000090
     4  C   -0.101803  -0.006180  -0.000576   0.018866  -0.001397  -0.013097
     5  H    0.001679   0.000688  -0.000176  -0.003164  -0.000700   0.000863
     6  N    0.014937  -0.028003   0.002481  -0.009512   0.007577  -0.002811
     7  H   -0.018240   0.012316   0.000851   0.013488   0.002557  -0.007039
     8  H    0.012725  -0.004888   0.001320   0.013321   0.004422  -0.002992
     9  H    0.001003   0.000677   0.000056   0.000990  -0.000070   0.000204
    10  C   -3.982955  -0.047526   0.174031  -1.107973  -1.136039  -1.521263
    11  H    0.075227   0.000780   0.009208  -0.102889  -0.064908   0.045662
    12  C    0.279792   1.081351  -0.366311 -11.526085  -5.951378   0.113380
    13  C   19.938091  -0.112243   0.925150  -0.260103  -4.317952   0.317894
    14  H   -0.112243   0.663392  -0.017420  -0.405734  -0.051242  -0.105474
    15  O    0.925150  -0.017420   8.228287  -0.136669  -0.175388  -0.221268
    16  C   -0.260103  -0.405734  -0.136669  23.972917   4.422814  -4.308563
    17  C   -4.317952  -0.051242  -0.175388   4.422814  16.331612  -4.742153
    18  C    0.317894  -0.105474  -0.221268  -4.308563  -4.742153  15.697351
    19  O   -0.054576  -0.000716   0.008414   0.162284   0.341821  -0.026364
    20  C   -1.515424   0.026440  -0.092353  -3.524837   1.705607   0.523284
    21  C   -1.515061  -0.137019   0.010916  -1.668072  -0.366033   1.952103
    22  H   -0.032527  -0.061425   0.002202  -0.071200  -0.010780   0.712433
    23  H    0.034781  -0.001099   0.067483  -0.171039   0.015565   0.048456
    24  H    0.002708   0.000786   0.000841  -0.142352  -0.069640  -0.008759
    25  C   -2.445082  -0.023093  -0.033045  -1.071683  -0.613213  -0.398487
    26  H    0.023368   0.010840   0.000508   0.094087   0.039369  -0.031669
    27  O   -0.003131  -0.000806  -0.000009   0.031283  -0.068307  -0.007242
    28  C   -0.064947  -0.001508   0.000131  -0.133392   0.073651  -0.220175
    29  H   -0.000848  -0.000587  -0.000013  -0.001509  -0.006712  -0.004897
    30  H   -0.001504   0.000016   0.000011  -0.008345   0.002126  -0.006424
    31  H   -0.001598  -0.000523  -0.000015  -0.001835  -0.006746  -0.002921
              19         20         21         22         23         24
     1  C   -0.000015  -0.000974   0.006264  -0.006131  -0.001099   0.000062
     2  H   -0.000003   0.000016   0.000260  -0.000229  -0.000085   0.000002
     3  H    0.000037  -0.000737  -0.000249  -0.000094   0.000068  -0.000015
     4  C    0.000244  -0.000531   0.000716  -0.001529   0.000168   0.000020
     5  H    0.000006   0.000005   0.000012  -0.000075  -0.000001   0.000001
     6  N   -0.000162   0.000444   0.000667  -0.006347   0.000083  -0.000014
     7  H    0.000025  -0.000931   0.000255  -0.004581  -0.000013  -0.000021
     8  H   -0.000034   0.000212  -0.000037   0.000669   0.000048   0.000001
     9  H   -0.000002   0.000021  -0.000066  -0.000155   0.000031   0.000001
    10  C    0.023520  -0.466244   0.295139  -0.125779  -0.007603  -0.001302
    11  H   -0.000184  -0.008631   0.000320   0.002694   0.000472  -0.000216
    12  C   -0.015839  -0.894514  -0.590543  -0.282706  -0.000982   0.002413
    13  C   -0.054576  -1.515424  -1.515061  -0.032527   0.034781   0.002708
    14  H   -0.000716   0.026440  -0.137019  -0.061425  -0.001099   0.000786
    15  O    0.008414  -0.092353   0.010916   0.002202   0.067483   0.000841
    16  C    0.162284  -3.524837  -1.668072  -0.071200  -0.171039  -0.142352
    17  C    0.341821   1.705607  -0.366033  -0.010780   0.015565  -0.069640
    18  C   -0.026364   0.523284   1.952103   0.712433   0.048456  -0.008759
    19  O    8.172178  -0.479360   0.015478  -0.002440   0.251243  -0.025192
    20  C   -0.479360  13.285705  -2.797214   0.022000   0.076050   0.684538
    21  C    0.015478  -2.797214  10.440245   0.121327   0.014546  -0.064417
    22  H   -0.002440   0.022000   0.121327   0.564544   0.001921  -0.000107
    23  H    0.251243   0.076050   0.014546   0.001921   0.298564   0.003076
    24  H   -0.025192   0.684538  -0.064417  -0.000107   0.003076   0.450280
    25  C   -0.020878   0.562980   0.242382   0.094757  -0.007610  -0.074983
    26  H    0.000376  -0.010589   0.372474  -0.034936   0.000217   0.000431
    27  O   -0.001552  -0.630324   0.249320   0.002145  -0.000492  -0.017922
    28  C   -0.000550   0.133081  -0.252592   0.010808   0.000417   0.004294
    29  H   -0.000008  -0.010736   0.018519   0.003535  -0.000037  -0.000620
    30  H    0.000033   0.008342  -0.001667   0.000031   0.000070   0.000425
    31  H   -0.000028  -0.012178   0.020453   0.003279  -0.000035  -0.000580
              25         26         27         28         29         30
     1  C   -0.004793  -0.000293   0.000003  -0.000096   0.000004   0.000002
     2  H   -0.000107  -0.000031   0.000000  -0.000002   0.000000   0.000000
     3  H   -0.000010   0.000026   0.000003   0.000007   0.000002  -0.000001
     4  C   -0.000262   0.000094   0.000001   0.000005  -0.000001   0.000000
     5  H   -0.000023   0.000004   0.000000   0.000000   0.000000   0.000000
     6  N    0.000443   0.000323   0.000000   0.000004  -0.000003   0.000000
     7  H   -0.000147   0.000061   0.000004  -0.000003   0.000006  -0.000002
     8  H    0.000124  -0.000008   0.000000   0.000002   0.000000   0.000000
     9  H   -0.000004   0.000006   0.000000   0.000000   0.000000   0.000000
    10  C   -0.119648   0.006809   0.001190   0.003084  -0.000054   0.000113
    11  H   -0.002033  -0.000282   0.000026  -0.000064   0.000011  -0.000002
    12  C   -1.084999   0.021041   0.003047  -0.013564  -0.000490   0.000141
    13  C   -2.445082   0.023368  -0.003131  -0.064947  -0.000848  -0.001504
    14  H   -0.023093   0.010840  -0.000806  -0.001508  -0.000587   0.000016
    15  O   -0.033045   0.000508  -0.000009   0.000131  -0.000013   0.000011
    16  C   -1.071683   0.094087   0.031283  -0.133392  -0.001509  -0.008345
    17  C   -0.613213   0.039369  -0.068307   0.073651  -0.006712   0.002126
    18  C   -0.398487  -0.031669  -0.007242  -0.220175  -0.004897  -0.006424
    19  O   -0.020878   0.000376  -0.001552  -0.000550  -0.000008   0.000033
    20  C    0.562980  -0.010589  -0.630324   0.133081  -0.010736   0.008342
    21  C    0.242382   0.372474   0.249320  -0.252592   0.018519  -0.001667
    22  H    0.094757  -0.034936   0.002145   0.010808   0.003535   0.000031
    23  H   -0.007610   0.000217  -0.000492   0.000417  -0.000037   0.000070
    24  H   -0.074983   0.000431  -0.017922   0.004294  -0.000620   0.000425
    25  C   11.391447  -0.185076   0.335463   0.218533  -0.012919   0.041824
    26  H   -0.185076   0.472898  -0.020241  -0.024003  -0.013445   0.003318
    27  O    0.335463  -0.020241   8.224288   0.187066  -0.031351  -0.062108
    28  C    0.218533  -0.024003   0.187066   5.274206   0.408688   0.392282
    29  H   -0.012919  -0.013445  -0.031351   0.408688   0.551530  -0.019037
    30  H    0.041824   0.003318  -0.062108   0.392282  -0.019037   0.442033
    31  H   -0.012838  -0.013288  -0.032087   0.408749  -0.056365  -0.018918
              31
     1  C   -0.000009
     2  H    0.000000
     3  H    0.000002
     4  C   -0.000001
     5  H    0.000000
     6  N   -0.000003
     7  H    0.000006
     8  H    0.000000
     9  H    0.000000
    10  C   -0.000125
    11  H    0.000009
    12  C   -0.001136
    13  C   -0.001598
    14  H   -0.000523
    15  O   -0.000015
    16  C   -0.001835
    17  C   -0.006746
    18  C   -0.002921
    19  O   -0.000028
    20  C   -0.012178
    21  C    0.020453
    22  H    0.003279
    23  H   -0.000035
    24  H   -0.000580
    25  C   -0.012838
    26  H   -0.013288
    27  O   -0.032087
    28  C    0.408749
    29  H   -0.056365
    30  H   -0.018918
    31  H    0.552352
 Mulliken charges:
               1
     1  C   -0.455327
     2  H    0.211878
     3  H    0.199026
     4  C   -0.327365
     5  H    0.199424
     6  N    0.119121
     7  H    0.185808
     8  H    0.155927
     9  H    0.183363
    10  C    0.429456
    11  H    0.230320
    12  C   -0.388992
    13  C   -0.688944
    14  H    0.171829
    15  O   -0.387061
    16  C    2.297564
    17  C    0.706080
    18  C   -1.803741
    19  O   -0.347755
    20  C   -0.583147
    21  C   -0.368425
    22  H    0.098695
    23  H    0.376837
    24  H    0.256261
    25  C   -0.777022
    26  H    0.287611
    27  O   -0.158267
    28  C   -0.404113
    29  H    0.177339
    30  H    0.227240
    31  H    0.176380
 Sum of Mulliken charges =   0.00000
 Mulliken charges with hydrogens summed into heavy atoms:
               1
     1  C    0.141386
     4  C    0.211349
     6  N    0.119121
    10  C    0.659776
    12  C   -0.217163
    13  C   -0.688944
    15  O   -0.387061
    16  C    2.297564
    17  C    0.706080
    18  C   -1.705046
    19  O    0.029082
    20  C   -0.326885
    21  C   -0.080815
    25  C   -0.777022
    27  O   -0.158267
    28  C    0.176847
 Electronic spatial extent (au):  <R**2>=           5718.5075
 Charge=              0.0000 electrons
 Dipole moment (field-independent basis, Debye):
    X=             -5.4990    Y=             -7.9219    Z=             -0.2522  Tot=              9.6467
 Quadrupole moment (field-independent basis, Debye-Ang):
   XX=            -53.6501   YY=            -94.4858   ZZ=            -99.0574
   XY=             -5.2764   XZ=              0.8024   YZ=             -0.2900
 Traceless Quadrupole moment (field-independent basis, Debye-Ang):
   XX=             28.7477   YY=            -12.0880   ZZ=            -16.6597
   XY=             -5.2764   XZ=              0.8024   YZ=             -0.2900
 Octapole moment (field-independent basis, Debye-Ang**2):
  XXX=           -148.8228  YYY=            -46.1049  ZZZ=             -0.9145  XYY=              0.8606
  XXY=            -80.0670  XXZ=             -5.6004  XZZ=             -2.5717  YZZ=              1.0691
  YYZ=              0.2094  XYZ=              1.8227
 Hexadecapole moment (field-independent basis, Debye-Ang**3):
 XXXX=          -4810.5065 YYYY=          -1200.9896 ZZZZ=           -129.0158 XXXY=           -157.3455
 XXXZ=             12.8473 YYYX=            -43.0873 YYYZ=             -1.8651 ZZZX=              4.0745
 ZZZY=              0.7219 XXYY=          -1050.1428 XXZZ=          -1079.1020 YYZZ=           -219.2149
 XXYZ=             -4.7385 YYXZ=             -4.5618 ZZXY=             -2.6203
 N-N= 1.047396047356D+03 E-N=-3.838142096724D+03  KE= 7.437957331132D+02
 D1PCM: PCM CHGder 1st derivatives, ID1Alg=3 FixD1E=F DoIter=F DoCFld=F I1PDM=0.
 Calling FoFJK, ICntrl=      2127 FMM=F ISym2X=0 I1Cent= 0 IOpClX= 0 NMat=1 NMatS=1 NMatT=0.
 ***** Axes restored to original set *****
 -------------------------------------------------------------------
 Center     Atomic                   Forces (Hartrees/Bohr)
 Number     Number              X              Y              Z
 -------------------------------------------------------------------
      1        6           0.000058416    0.002875131    0.000858452
      2        1          -0.000506954   -0.000384011   -0.000145786
      3        1           0.000329034   -0.000597792    0.000279222
      4        6           0.002614740   -0.002186442   -0.000438817
      5        1          -0.000774992    0.000342771    0.000826025
      6        7          -0.008737500   -0.003912093   -0.001596691
      7        1           0.000250365    0.000016615   -0.000252047
      8        1          -0.000026937    0.000084910   -0.000031700
      9        1          -0.000744227    0.000334910   -0.000268142
     10        6           0.012733376    0.000309840   -0.000202822
     11        1           0.001368531    0.000457662   -0.000177065
     12        6          -0.010709711    0.000382917    0.000897868
     13        6           0.007411660    0.011340125    0.001851077
     14        1           0.000041842   -0.000072097   -0.000069307
     15        8          -0.002245473   -0.009447275   -0.001651553
     16        6          -0.001751427   -0.002104023   -0.000308057
     17        6          -0.000696907    0.007134986    0.001292462
     18        6           0.000386520    0.000635802    0.000043490
     19        8          -0.000234956   -0.005795256   -0.000993032
     20        6           0.001186011   -0.002183223   -0.000446659
     21        6          -0.000570574   -0.000047306    0.000039809
     22        1          -0.000207369   -0.000053425    0.000035677
     23        1           0.001643960    0.000710455    0.000039396
     24        1          -0.000512661   -0.000218745   -0.000016763
     25        6          -0.001551606    0.002672261    0.000534596
     26        1           0.000014114   -0.000147844   -0.000026062
     27        8           0.002547371   -0.004418448   -0.000868172
     28        6          -0.001181631    0.005084617    0.000913921
     29        1          -0.000210207   -0.000561672    0.000409060
     30        1           0.000320853    0.000152617    0.000013910
     31        1          -0.000243661   -0.000405967   -0.000542291
 -------------------------------------------------------------------
 Cartesian Forces:  Max     0.012733376 RMS     0.003030794

 GradGradGradGradGradGradGradGradGradGradGradGradGradGradGradGradGradGrad
 Berny optimization.
 FormGI is forming the generalized inverse of G from B-inverse, IUseBI=4.
 Internal  Forces:  Max     0.009287294 RMS     0.001623417
 Search for a local minimum.
 Step number   1 out of a maximum of  150
 All quantities printed in internal units (Hartrees-Bohrs-Radians)
 Mixed Optimization -- RFO/linear search
 Second derivative matrix not updated -- first step.
 ITU=  0
     Eigenvalues ---    0.01035   0.01036   0.01068   0.01215   0.01388
     Eigenvalues ---    0.01464   0.01536   0.01679   0.01952   0.02009
     Eigenvalues ---    0.02108   0.02144   0.02178   0.02198   0.02222
     Eigenvalues ---    0.02235   0.02251   0.02329   0.02422   0.02524
     Eigenvalues ---    0.02583   0.02623   0.07389   0.07413   0.07601
     Eigenvalues ---    0.07635   0.10085   0.10703   0.16000   0.16000
     Eigenvalues ---    0.16000   0.16000   0.16000   0.16000   0.16000
     Eigenvalues ---    0.16000   0.16000   0.16000   0.16000   0.16000
     Eigenvalues ---    0.16000   0.16000   0.16000   0.22000   0.22000
     Eigenvalues ---    0.22368   0.23488   0.24535   0.24600   0.24697
     Eigenvalues ---    0.25000   0.25000   0.25000   0.25000   0.25000
     Eigenvalues ---    0.25000   0.33995   0.34085   0.34194   0.34198
     Eigenvalues ---    0.34379   0.34392   0.34619   0.34813   0.34831
     Eigenvalues ---    0.34970   0.35259   0.35702   0.35730   0.35878
     Eigenvalues ---    0.36091   0.37862   0.38292   0.38622   0.40329
     Eigenvalues ---    0.42735   0.43718   0.44191   0.46210   0.47362
     Eigenvalues ---    0.48241   0.49881   0.53029   0.54639   0.56141
     Eigenvalues ---    0.58888   0.85027
 RFO step:  Lambda=-8.47205069D-04 EMin= 1.03513350D-02
 Linear search not attempted -- first point.
 Iteration  1 RMS(Cart)=  0.01639783 RMS(Int)=  0.00008936
 Iteration  2 RMS(Cart)=  0.00013946 RMS(Int)=  0.00000610
 Iteration  3 RMS(Cart)=  0.00000001 RMS(Int)=  0.00000610
 Variable       Old X    -DE/DX   Delta X   Delta X   Delta X     New X
                                 (Linear)    (Quad)   (Total)
    R1        2.05980  -0.00061   0.00000  -0.00174  -0.00174   2.05806
    R2        2.07339  -0.00066   0.00000  -0.00192  -0.00192   2.07147
    R3        2.73471   0.00203   0.00000   0.00526   0.00526   2.73996
    R4        2.06694  -0.00033   0.00000  -0.00097  -0.00097   2.06597
    R5        2.07187  -0.00085   0.00000  -0.00250  -0.00250   2.06937
    R6        2.73942   0.00152   0.00000   0.00396   0.00396   2.74339
    R7        2.05950  -0.00008   0.00000  -0.00023  -0.00023   2.05928
    R8        2.06674  -0.00067   0.00000  -0.00195  -0.00195   2.06478
    R9        2.54132  -0.00829   0.00000  -0.01474  -0.01474   2.52658
   R10        2.05257  -0.00036   0.00000  -0.00101  -0.00101   2.05156
   R11        2.56927   0.00715   0.00000   0.01347   0.01347   2.58274
   R12        2.74566  -0.00468   0.00000  -0.01234  -0.01234   2.73332
   R13        2.03940  -0.00009   0.00000  -0.00024  -0.00024   2.03915
   R14        2.35313   0.00929   0.00000   0.01091   0.01091   2.36404
   R15        2.79598   0.00115   0.00000   0.00332   0.00332   2.79929
   R16        2.68684  -0.00198   0.00000  -0.00488  -0.00488   2.68196
   R17        2.64292   0.00077   0.00000   0.00156   0.00156   2.64448
   R18        2.51831   0.00528   0.00000   0.00896   0.00896   2.52727
   R19        2.62914  -0.00043   0.00000  -0.00095  -0.00095   2.62819
   R20        2.61151   0.00058   0.00000   0.00124   0.00124   2.61275
   R21        2.04551  -0.00019   0.00000  -0.00054  -0.00054   2.04497
   R22        1.86686   0.00149   0.00000   0.00297   0.00297   1.86983
   R23        2.04505   0.00054   0.00000   0.00150   0.00150   2.04656
   R24        2.62053   0.00224   0.00000   0.00479   0.00479   2.62532
   R25        2.64930  -0.00019   0.00000  -0.00023  -0.00023   2.64906
   R26        2.04273  -0.00015   0.00000  -0.00042  -0.00042   2.04231
   R27        2.55454  -0.00122   0.00000  -0.00224  -0.00224   2.55231
   R28        2.66794   0.00450   0.00000   0.01028   0.01028   2.67822
   R29        2.06997  -0.00070   0.00000  -0.00205  -0.00205   2.06793
   R30        2.05724  -0.00031   0.00000  -0.00088  -0.00088   2.05637
   R31        2.07004  -0.00069   0.00000  -0.00202  -0.00202   2.06802
    A1        1.89702   0.00020   0.00000   0.00022   0.00021   1.89722
    A2        1.90904  -0.00035   0.00000  -0.00257  -0.00258   1.90646
    A3        1.89195   0.00006   0.00000   0.00064   0.00064   1.89259
    A4        1.94600  -0.00041   0.00000  -0.00269  -0.00270   1.94331
    A5        1.89339   0.00018   0.00000   0.00186   0.00187   1.89525
    A6        1.92542   0.00034   0.00000   0.00264   0.00264   1.92806
    A7        1.94527  -0.00111   0.00000  -0.00767  -0.00769   1.93758
    A8        1.89304   0.00048   0.00000   0.00363   0.00364   1.89668
    A9        1.89505   0.00052   0.00000   0.00120   0.00117   1.89622
   A10        1.91115   0.00038   0.00000   0.00345   0.00346   1.91460
   A11        1.92699  -0.00057   0.00000  -0.00394  -0.00395   1.92303
   A12        1.89121   0.00036   0.00000   0.00374   0.00374   1.89496
   A13        2.05763  -0.00009   0.00000   0.00015   0.00013   2.05776
   A14        2.09735   0.00043   0.00000   0.00235   0.00233   2.09968
   A15        2.11188  -0.00032   0.00000  -0.00070  -0.00072   2.11117
   A16        2.01721  -0.00089   0.00000  -0.00646  -0.00646   2.01075
   A17        2.21885  -0.00107   0.00000  -0.00486  -0.00486   2.21398
   A18        2.04709   0.00197   0.00000   0.01132   0.01132   2.05841
   A19        2.06289   0.00245   0.00000   0.01108   0.01108   2.07398
   A20        2.11419  -0.00126   0.00000  -0.00577  -0.00577   2.10843
   A21        2.10608  -0.00119   0.00000  -0.00532  -0.00532   2.10076
   A22        2.10191   0.00432   0.00000   0.01721   0.01721   2.11912
   A23        2.10100  -0.00092   0.00000  -0.00367  -0.00367   2.09733
   A24        2.08028  -0.00340   0.00000  -0.01354  -0.01354   2.06674
   A25        2.08675  -0.00126   0.00000  -0.00474  -0.00474   2.08201
   A26        2.14986   0.00117   0.00000   0.00492   0.00492   2.15478
   A27        2.04657   0.00009   0.00000  -0.00018  -0.00018   2.04639
   A28        2.13256  -0.00257   0.00000  -0.01004  -0.01004   2.12251
   A29        2.10033   0.00093   0.00000   0.00332   0.00332   2.10365
   A30        2.05030   0.00164   0.00000   0.00673   0.00673   2.05703
   A31        2.14415  -0.00018   0.00000  -0.00094  -0.00094   2.14321
   A32        2.08758   0.00019   0.00000   0.00110   0.00110   2.08868
   A33        2.05146  -0.00001   0.00000  -0.00016  -0.00016   2.05130
   A34        1.85350  -0.00187   0.00000  -0.01165  -0.01165   1.84185
   A35        2.08440   0.00040   0.00000   0.00197   0.00197   2.08638
   A36        2.10378  -0.00051   0.00000  -0.00211  -0.00210   2.10168
   A37        2.09500   0.00011   0.00000   0.00013   0.00013   2.09513
   A38        2.07161   0.00007   0.00000   0.00084   0.00084   2.07245
   A39        2.08742  -0.00003   0.00000  -0.00038  -0.00038   2.08704
   A40        2.12415  -0.00004   0.00000  -0.00046  -0.00046   2.12369
   A41        2.09992  -0.00039   0.00000  -0.00093  -0.00093   2.09899
   A42        2.02040   0.00019   0.00000   0.00044   0.00044   2.02084
   A43        2.16287   0.00020   0.00000   0.00050   0.00050   2.16336
   A44        2.07187   0.00051   0.00000   0.00204   0.00204   2.07390
   A45        1.94453  -0.00028   0.00000  -0.00179  -0.00179   1.94274
   A46        1.84767   0.00036   0.00000   0.00238   0.00238   1.85005
   A47        1.94469  -0.00029   0.00000  -0.00192  -0.00192   1.94278
   A48        1.90659   0.00000   0.00000   0.00017   0.00017   1.90677
   A49        1.91207   0.00022   0.00000   0.00106   0.00106   1.91313
   A50        1.90680   0.00000   0.00000   0.00017   0.00017   1.90697
    D1       -0.30468   0.00014   0.00000   0.00477   0.00477  -0.29991
    D2        3.02810   0.00002   0.00000  -0.00554  -0.00555   3.02255
    D3        1.79395  -0.00010   0.00000   0.00162   0.00163   1.79558
    D4       -1.15646  -0.00022   0.00000  -0.00869  -0.00869  -1.16515
    D5       -2.38421   0.00008   0.00000   0.00397   0.00398  -2.38023
    D6        0.94857  -0.00004   0.00000  -0.00634  -0.00634   0.94222
    D7       -1.11533   0.00013   0.00000  -0.00022  -0.00023  -1.11556
    D8        1.83340   0.00034   0.00000   0.01053   0.01051   1.84392
    D9        3.07326  -0.00001   0.00000  -0.00214  -0.00214   3.07113
   D10       -0.26119   0.00020   0.00000   0.00861   0.00861  -0.25258
   D11        0.99237  -0.00035   0.00000  -0.00649  -0.00647   0.98590
   D12       -2.34208  -0.00013   0.00000   0.00427   0.00427  -2.33780
   D13        3.11131  -0.00010   0.00000  -0.00158  -0.00158   3.10973
   D14       -0.04022  -0.00010   0.00000  -0.00173  -0.00173  -0.04195
   D15        0.16693  -0.00025   0.00000  -0.01232  -0.01233   0.15460
   D16       -2.98460  -0.00025   0.00000  -0.01248  -0.01248  -2.99707
   D17       -3.11278   0.00003   0.00000   0.00099   0.00099  -3.11179
   D18        0.03582   0.00004   0.00000   0.00127   0.00127   0.03709
   D19        0.01873   0.00002   0.00000   0.00074   0.00074   0.01947
   D20       -3.11585   0.00002   0.00000   0.00103   0.00103  -3.11483
   D21        0.02912   0.00001   0.00000   0.00114   0.00115   0.03027
   D22       -3.11011  -0.00002   0.00000  -0.00208  -0.00210  -3.11221
   D23       -3.11945   0.00001   0.00000   0.00085   0.00087  -3.11859
   D24        0.02450  -0.00003   0.00000  -0.00237  -0.00238   0.02212
   D25       -3.12572   0.00001   0.00000  -0.00017  -0.00019  -3.12591
   D26        0.01596  -0.00001   0.00000  -0.00103  -0.00104   0.01492
   D27        0.01820  -0.00004   0.00000  -0.00340  -0.00338   0.01482
   D28       -3.12330  -0.00006   0.00000  -0.00425  -0.00424  -3.12753
   D29       -0.00344  -0.00001   0.00000  -0.00061  -0.00061  -0.00405
   D30        3.13763  -0.00001   0.00000  -0.00060  -0.00060   3.13704
   D31        3.13806   0.00000   0.00000   0.00019   0.00019   3.13826
   D32       -0.00405   0.00000   0.00000   0.00021   0.00021  -0.00384
   D33       -3.14004   0.00002   0.00000   0.00115   0.00116  -3.13888
   D34        0.00496  -0.00001   0.00000  -0.00014  -0.00014   0.00482
   D35        0.00164   0.00001   0.00000   0.00032   0.00032   0.00196
   D36       -3.13654  -0.00002   0.00000  -0.00098  -0.00098  -3.13752
   D37       -0.00736   0.00000   0.00000   0.00016   0.00016  -0.00721
   D38        3.13473   0.00000   0.00000   0.00014   0.00014   3.13488
   D39       -3.14027   0.00000   0.00000  -0.00001  -0.00001  -3.14028
   D40        0.00342  -0.00001   0.00000  -0.00055  -0.00055   0.00286
   D41        0.00082   0.00000   0.00000   0.00000   0.00000   0.00082
   D42       -3.13867  -0.00001   0.00000  -0.00055  -0.00054  -3.13922
   D43        0.00143  -0.00001   0.00000  -0.00050  -0.00050   0.00093
   D44       -3.14001  -0.00001   0.00000  -0.00057  -0.00057  -3.14059
   D45        3.13968   0.00002   0.00000   0.00078   0.00078   3.14046
   D46       -0.00176   0.00002   0.00000   0.00070   0.00070  -0.00106
   D47       -0.00023   0.00001   0.00000   0.00038   0.00038   0.00015
   D48        3.14016   0.00002   0.00000   0.00076   0.00076   3.14092
   D49       -3.13972   0.00000   0.00000  -0.00017  -0.00017  -3.13989
   D50        0.00068   0.00001   0.00000   0.00021   0.00021   0.00089
   D51       -0.00217   0.00000   0.00000   0.00014   0.00014  -0.00203
   D52        3.14072  -0.00001   0.00000  -0.00027  -0.00027   3.14045
   D53        3.13927   0.00001   0.00000   0.00022   0.00022   3.13949
   D54       -0.00103   0.00000   0.00000  -0.00019  -0.00019  -0.00122
   D55       -3.13821  -0.00002   0.00000  -0.00080  -0.00080  -3.13902
   D56        0.00214  -0.00001   0.00000  -0.00041  -0.00041   0.00173
   D57        1.06818  -0.00006   0.00000  -0.00049  -0.00049   1.06769
   D58        3.13896   0.00001   0.00000   0.00019   0.00019   3.13914
   D59       -1.07311   0.00007   0.00000   0.00080   0.00079  -1.07232
         Item               Value     Threshold  Converged?
 Maximum Force            0.009287     0.000450     NO 
 RMS     Force            0.001623     0.000300     NO 
 Maximum Displacement     0.059822     0.001800     NO 
 RMS     Displacement     0.016429     0.001200     NO 
 Predicted change in Energy=-4.249373D-04
 GradGradGradGradGradGradGradGradGradGradGradGradGradGradGradGradGradGrad

                          Input orientation:                          
 ---------------------------------------------------------------------
 Center     Atomic      Atomic             Coordinates (Angstroms)
 Number     Number       Type             X           Y           Z
 ---------------------------------------------------------------------
      1          6           0        3.645105    1.639858    0.292465
      2          1           0        4.680006    1.938489    0.453386
      3          1           0        3.234573    2.227528   -0.536814
      4          6           0        4.830042   -0.436483   -0.389092
      5          1           0        5.197250   -0.039842   -1.341456
      6          7           0        3.596844    0.219113    0.007089
      7          1           0        3.074837    1.867732    1.196954
      8          1           0        4.657799   -1.506764   -0.500110
      9          1           0        5.598987   -0.284860    0.372215
     10          6           0        2.420994   -0.409415   -0.092487
     11          1           0        2.480402   -1.465101   -0.338665
     12          6           0        1.181655    0.136107    0.092944
     13          6           0        0.019562   -0.717319   -0.022434
     14          1           0        1.067572    1.185922    0.314921
     15          8           0        0.130065   -1.941529   -0.255009
     16          6           0       -1.339523   -0.149750    0.135897
     17          6           0       -2.465938   -1.007566    0.038091
     18          6           0       -1.585805    1.205739    0.381491
     19          8           0       -2.331436   -2.316982   -0.198367
     20          6           0       -3.753301   -0.503071    0.187900
     21          6           0       -2.860423    1.720388    0.530123
     22          1           0       -0.755622    1.895480    0.459639
     23          1           0       -1.357649   -2.473057   -0.278565
     24          1           0       -4.601318   -1.172311    0.111393
     25          6           0       -3.954641    0.849631    0.432248
     26          1           0       -2.990706    2.776731    0.717667
     27          8           0       -5.241733    1.238182    0.561108
     28          6           0       -5.521288    2.605393    0.808457
     29          1           0       -5.161068    3.238976   -0.007817
     30          1           0       -6.604830    2.683319    0.871727
     31          1           0       -5.079717    2.937066    1.753238
 ---------------------------------------------------------------------
                    Distance matrix (angstroms):
                    1          2          3          4          5
     1  C    0.000000
     2  H    1.089080   0.000000
     3  H    1.096174   1.775758   0.000000
     4  C    2.485918   2.524435   3.108745   0.000000
     5  H    2.810737   2.720807   3.104918   1.095063   0.000000
     6  N    1.449926   2.080547   2.112061   1.451738   2.108775
     7  H    1.093267   1.770442   1.777897   3.302377   3.819293
     8  H    3.399258   3.574831   3.996481   1.089722   1.775030
     9  H    2.743821   2.407155   3.567757   1.092637   1.777103
    10  C    2.417883   3.303600   2.795140   2.427389   3.066612
    11  H    3.375742   4.129168   3.774063   2.565424   3.227726
    12  C    2.893037   3.951830   2.997517   3.724372   4.267724
    13  C    4.335898   5.385115   4.390104   4.832600   5.385838
    14  H    2.617297   3.692589   2.550743   4.157405   4.615227
    15  O    5.047928   6.021489   5.205615   4.936894   5.520249
    16  C    5.298465   6.379363   5.198687   6.198496   6.702541
    17  C    6.664714   7.740558   6.579679   7.330753   7.846279
    18  C    5.249648   6.308921   5.012323   6.667367   7.108435
    19  O    7.184466   8.227645   7.193579   7.406715   7.948153
    20  C    7.703213   8.783642   7.537358   8.602972   9.092078
    21  C    6.510366   7.543973   6.208423   8.039919   8.457382
    22  H    4.411314   5.435802   4.126116   6.112122   6.513532
    23  H    6.501515   7.513373   6.576526   6.515164   7.072268
    24  H    8.714619   9.794744   8.566228   9.473250   9.970215
[...]
 Alpha virt. eigenvalues --    2.54845   2.56107   2.56473   2.57550   2.58243
 Alpha virt. eigenvalues --    2.59780   2.60702   2.61349   2.63856   2.64497
 Alpha virt. eigenvalues --    2.64841   2.66786   2.68952   2.71274   2.72150
 Alpha virt. eigenvalues --    2.73043   2.73965   2.76558   2.77619   2.77959
 Alpha virt. eigenvalues --    2.80861   2.82236   2.82677   2.83839   2.84646
 Alpha virt. eigenvalues --    2.85589   2.86640   2.88363   2.88881   2.91532
 Alpha virt. eigenvalues --    2.92699   2.92948   2.95557   2.95985   2.98110
 Alpha virt. eigenvalues --    2.98873   2.99242   3.02097   3.04239   3.08494
 Alpha virt. eigenvalues --    3.13281   3.14343   3.15013   3.17075   3.18777
 Alpha virt. eigenvalues --    3.20416   3.21620   3.23131   3.23885   3.27112
 Alpha virt. eigenvalues --    3.28600   3.29618   3.29851   3.32416   3.34103
 Alpha virt. eigenvalues --    3.37583   3.41639   3.44047   3.51595   3.54897
 Alpha virt. eigenvalues --    3.57159   3.60756   3.63065   3.68079   3.68563
 Alpha virt. eigenvalues --    3.72586   3.74413   3.76557   3.80747   3.82173
 Alpha virt. eigenvalues --    3.83602   3.86885   3.87749   3.90025   3.93752
 Alpha virt. eigenvalues --    3.95276   3.95960   4.02850   4.09692   4.13210
 Alpha virt. eigenvalues --    4.18753   4.20540   4.27696   4.30019   4.33438
 Alpha virt. eigenvalues --    4.40458   4.66005   4.94910   4.98834   5.13138
 Alpha virt. eigenvalues --    5.13876   5.18610   5.19149   5.42084   5.50538
 Alpha virt. eigenvalues --    5.62399   5.85924   5.92356   5.95934  23.73975
 Alpha virt. eigenvalues --   23.95076  24.04366  24.05903  24.06123  24.06673
 Alpha virt. eigenvalues --   24.07663  24.09156  24.15853  24.24337  24.28100
 Alpha virt. eigenvalues --   24.31738  35.71545  50.10040  50.13092  50.19520
          Condensed to atoms (all electrons):
               1          2          3          4          5          6
     1  C    5.307567   0.389958   0.411750  -0.058406   0.006898   0.239046
     2  H    0.389958   0.452520  -0.017224   0.003104  -0.005389  -0.045318
     3  H    0.411750  -0.017224   0.517601  -0.001159  -0.001045  -0.038507
     4  C   -0.058406   0.003104  -0.001159   5.174639   0.401305   0.243549
     5  H    0.006898  -0.005389  -0.001045   0.401305   0.536617  -0.043209
     6  N    0.239046  -0.045318  -0.038507   0.243549  -0.043209   6.791517
     7  H    0.413938  -0.017603  -0.054076   0.002402   0.002195  -0.040898
     8  H   -0.004353   0.003438  -0.001650   0.412597  -0.029559  -0.092401
     9  H   -0.003841  -0.005667   0.003003   0.407377  -0.058780  -0.041746
    10  C    0.052367   0.027082  -0.010802  -0.025902  -0.033897   0.257962
    11  H    0.011639  -0.000347  -0.001504  -0.038093   0.003946  -0.061197
    12  C    0.603092   0.040475  -0.026340  -0.086269   0.024136  -0.269071
    13  C   -0.508992  -0.032565   0.009785  -0.104842  -0.000290   0.006919
    14  H    0.033214   0.001809   0.005488  -0.010247   0.000755  -0.026112
    15  O   -0.001928   0.000069   0.000105  -0.000440  -0.000058   0.002790
    16  C   -0.394419  -0.014081   0.009860   0.018286  -0.001506  -0.009485
    17  C   -0.069959  -0.001654   0.001689  -0.002346  -0.000414   0.006481
    18  C    0.034296  -0.002465  -0.003027  -0.010984   0.000428  -0.003279
    19  O   -0.000077  -0.000005   0.000031   0.000277   0.000004  -0.000141
    20  C   -0.000754   0.000005  -0.000782  -0.000482  -0.000002   0.000335
    21  C    0.009323   0.000431  -0.000033   0.000901   0.000068   0.000455
    22  H   -0.001093   0.000125  -0.004590  -0.001089  -0.000047  -0.006432
    23  H   -0.001140  -0.000095   0.000039   0.000192   0.000013   0.000145
    24  H    0.000067   0.000002  -0.000017   0.000021   0.000000  -0.000011
    25  C   -0.004435  -0.000109   0.000098  -0.000286  -0.000016   0.000149
    26  H   -0.000640  -0.000055   0.000260   0.000085   0.000004   0.000336
    27  O    0.000004   0.000000   0.000002   0.000001   0.000000   0.000000
    28  C   -0.000085  -0.000001   0.000003   0.000006   0.000000   0.000002
    29  H    0.000005   0.000000  -0.000001   0.000000   0.000000  -0.000003
    30  H    0.000003   0.000000  -0.000001   0.000000   0.000000   0.000000
    31  H   -0.000008  -0.000001  -0.000001  -0.000001   0.000000  -0.000004
               7          8          9         10         11         12
     1  C    0.413938  -0.004353  -0.003841   0.052367   0.011639   0.603092
     2  H   -0.017603   0.003438  -0.005667   0.027082  -0.000347   0.040475
     3  H   -0.054076  -0.001650   0.003003  -0.010802  -0.001504  -0.026340
     4  C    0.002402   0.412597   0.407377  -0.025902  -0.038093  -0.086269
     5  H    0.002195  -0.029559  -0.058780  -0.033897   0.003946   0.024136
     6  N   -0.040898  -0.092401  -0.041746   0.257962  -0.061197  -0.269071
     7  H    0.529064  -0.001705  -0.001621   0.017677   0.001480  -0.044705
     8  H   -0.001705   0.526726  -0.025958   0.061911  -0.010788  -0.025794
     9  H   -0.001621  -0.025958   0.536690  -0.026060   0.003043   0.018035
    10  C    0.017677   0.061911  -0.026060  12.273502   0.279018   1.024623
    11  H    0.001480  -0.010788   0.003043   0.279018   0.461566   0.183034
    12  C   -0.044705  -0.025794   0.018035   1.024623   0.183034  23.965227
    13  C    0.002528   0.016971  -0.002515  -4.432004   0.060227   0.432334
    14  H   -0.010482  -0.003907   0.001817  -0.061302   0.000868   1.009403
    15  O    0.000677   0.001453  -0.000042   0.187937   0.007433  -0.381545
    16  C    0.010028   0.016215  -0.001420  -1.041657  -0.113081 -11.937426
    17  C    0.001165   0.004864  -0.000449  -1.101914  -0.061890  -5.776084
    18  C   -0.000719  -0.003904   0.000581  -1.503497   0.042466   0.300206
    19  O    0.000040  -0.000040   0.000000   0.024061  -0.000062  -0.025212
    20  C   -0.000999   0.000211   0.000013  -0.463545  -0.008464  -0.934279
    21  C   -0.000159  -0.000089  -0.000066   0.279193   0.001298  -0.478518
    22  H    0.001018   0.000499  -0.000256  -0.118946   0.002555  -0.237549
    23  H    0.000015   0.000058   0.000016  -0.009809   0.000517  -0.002511
    24  H   -0.000022   0.000001   0.000001  -0.001820  -0.000206   0.000055
    25  C   -0.000147   0.000116  -0.000009  -0.112859  -0.001801  -0.993454
    26  H   -0.000222  -0.000002   0.000006   0.005489  -0.000302   0.012371
    27  O    0.000005   0.000000   0.000000   0.001225   0.000025   0.003592
    28  C    0.000002   0.000002   0.000000   0.003164  -0.000058  -0.012126
    29  H    0.000008   0.000000   0.000000   0.000017   0.000011  -0.000163
    30  H   -0.000002   0.000000   0.000000   0.000130  -0.000002   0.000217
    31  H    0.000009   0.000000   0.000000  -0.000190   0.000008  -0.001198
              13         14         15         16         17         18
     1  C   -0.508992   0.033214  -0.001928  -0.394419  -0.069959   0.034296
     2  H   -0.032565   0.001809   0.000069  -0.014081  -0.001654  -0.002465
     3  H    0.009785   0.005488   0.000105   0.009860   0.001689  -0.003027
     4  C   -0.104842  -0.010247  -0.000440   0.018286  -0.002346  -0.010984
     5  H   -0.000290   0.000755  -0.000058  -0.001506  -0.000414   0.000428
     6  N    0.006919  -0.026112   0.002790  -0.009485   0.006481  -0.003279
     7  H    0.002528  -0.010482   0.000677   0.010028   0.001165  -0.000719
     8  H    0.016971  -0.003907   0.001453   0.016215   0.004864  -0.003904
     9  H   -0.002515   0.001817  -0.000042  -0.001420  -0.000449   0.000581
    10  C   -4.432004  -0.061302   0.187937  -1.041657  -1.101914  -1.503497
    11  H    0.060227   0.000868   0.007433  -0.113081  -0.061890   0.042466
    12  C    0.432334   1.009403  -0.381545 -11.937426  -5.776084   0.300206
    13  C   19.895884  -0.081682   0.901183  -0.432722  -4.320577   0.501812
    14  H   -0.081682   0.677225  -0.015205  -0.342647  -0.025457  -0.116019
    15  O    0.901183  -0.015205   8.248177  -0.118983  -0.189476  -0.204003
    16  C   -0.432722  -0.342647  -0.118983  24.643215   4.489882  -4.166690
    17  C   -4.320577  -0.025457  -0.189476   4.489882  15.702064  -4.272141
    18  C    0.501812  -0.116019  -0.204003  -4.166690  -4.272141  14.609842
    19  O   -0.075047  -0.000701   0.007887   0.169692   0.345951  -0.029936
    20  C   -1.402576   0.027133  -0.088125  -3.553907   1.881559   0.254952
    21  C   -1.486558  -0.140822   0.007177  -2.005684  -0.564583   2.224443
    22  H   -0.026345  -0.067049   0.001354  -0.126883  -0.025226   0.688291
    23  H    0.038322  -0.000891   0.069992  -0.166683   0.012167   0.048441
    24  H   -0.000867   0.000680   0.000747  -0.141680  -0.073805  -0.006308
    25  C   -2.174409  -0.025912  -0.032563  -1.022574  -0.619378  -0.532471
    26  H    0.015608   0.011653   0.000544   0.102585   0.042211  -0.020122
    27  O   -0.003758  -0.000720  -0.000011   0.031699  -0.072608   0.002508
    28  C   -0.064666  -0.001779   0.000110  -0.136873   0.067723  -0.206433
    29  H   -0.000268  -0.000554  -0.000011  -0.000436  -0.006088  -0.006866
    30  H   -0.001633  -0.000002   0.000010  -0.009024   0.002710  -0.007463
    31  H   -0.001150  -0.000492  -0.000017  -0.001696  -0.007019  -0.002828
              19         20         21         22         23         24
     1  C   -0.000077  -0.000754   0.009323  -0.001093  -0.001140   0.000067
     2  H   -0.000005   0.000005   0.000431   0.000125  -0.000095   0.000002
     3  H    0.000031  -0.000782  -0.000033  -0.004590   0.000039  -0.000017
     4  C    0.000277  -0.000482   0.000901  -0.001089   0.000192   0.000021
     5  H    0.000004  -0.000002   0.000068  -0.000047   0.000013   0.000000
     6  N   -0.000141   0.000335   0.000455  -0.006432   0.000145  -0.000011
     7  H    0.000040  -0.000999  -0.000159   0.001018   0.000015  -0.000022
     8  H   -0.000040   0.000211  -0.000089   0.000499   0.000058   0.000001
     9  H    0.000000   0.000013  -0.000066  -0.000256   0.000016   0.000001
    10  C    0.024061  -0.463545   0.279193  -0.118946  -0.009809  -0.001820
    11  H   -0.000062  -0.008464   0.001298   0.002555   0.000517  -0.000206
    12  C   -0.025212  -0.934279  -0.478518  -0.237549  -0.002511   0.000055
    13  C   -0.075047  -1.402576  -1.486558  -0.026345   0.038322  -0.000867
    14  H   -0.000701   0.027133  -0.140822  -0.067049  -0.000891   0.000680
    15  O    0.007887  -0.088125   0.007177   0.001354   0.069992   0.000747
    16  C    0.169692  -3.553907  -2.005684  -0.126883  -0.166683  -0.141680
    17  C    0.345951   1.881559  -0.564583  -0.025226   0.012167  -0.073805
    18  C   -0.029936   0.254952   2.224443   0.688291   0.048441  -0.006308
    19  O    8.190930  -0.462852   0.013512  -0.002441   0.247345  -0.024621
    20  C   -0.462852  13.102708  -2.645299   0.023472   0.072312   0.688844
    21  C    0.013512  -2.645299  10.493762   0.138270   0.016014  -0.065493
    22  H   -0.002441   0.023472   0.138270   0.572096   0.001905   0.000222
    23  H    0.247345   0.072312   0.016014   0.001905   0.296012   0.002914
    24  H   -0.024621   0.688844  -0.065493   0.000222   0.002914   0.451241
    25  C   -0.013594   0.591665   0.267964   0.098064  -0.006801  -0.071435
    26  H    0.000373  -0.014275   0.371988  -0.036054   0.000237   0.000166
    27  O   -0.001499  -0.618630   0.235693   0.001750  -0.000479  -0.017773
    28  C   -0.000555   0.139761  -0.261780   0.011483   0.000450   0.004204
    29  H    0.000007  -0.010458   0.018566   0.003369  -0.000034  -0.000636
    30  H    0.000021   0.006613   0.000335   0.000120   0.000072   0.000347
    31  H   -0.000031  -0.011676   0.020205   0.003031  -0.000039  -0.000503
              25         26         27         28         29         30
     1  C   -0.004435  -0.000640   0.000004  -0.000085   0.000005   0.000003
     2  H   -0.000109  -0.000055   0.000000  -0.000001   0.000000   0.000000
     3  H    0.000098   0.000260   0.000002   0.000003  -0.000001  -0.000001
     4  C   -0.000286   0.000085   0.000001   0.000006   0.000000   0.000000
     5  H   -0.000016   0.000004   0.000000   0.000000   0.000000   0.000000
     6  N    0.000149   0.000336   0.000000   0.000002  -0.000003   0.000000
     7  H   -0.000147  -0.000222   0.000005   0.000002   0.000008  -0.000002
     8  H    0.000116  -0.000002   0.000000   0.000002   0.000000   0.000000
     9  H   -0.000009   0.000006   0.000000   0.000000   0.000000   0.000000
    10  C   -0.112859   0.005489   0.001225   0.003164   0.000017   0.000130
    11  H   -0.001801  -0.000302   0.000025  -0.000058   0.000011  -0.000002
    12  C   -0.993454   0.012371   0.003592  -0.012126  -0.000163   0.000217
    13  C   -2.174409   0.015608  -0.003758  -0.064666  -0.000268  -0.001633
    14  H   -0.025912   0.011653  -0.000720  -0.001779  -0.000554  -0.000002
    15  O   -0.032563   0.000544  -0.000011   0.000110  -0.000011   0.000010
    16  C   -1.022574   0.102585   0.031699  -0.136873  -0.000436  -0.009024
    17  C   -0.619378   0.042211  -0.072608   0.067723  -0.006088   0.002710
    18  C   -0.532471  -0.020122   0.002508  -0.206433  -0.006866  -0.007463
    19  O   -0.013594   0.000373  -0.001499  -0.000555   0.000007   0.000021
    20  C    0.591665  -0.014275  -0.618630   0.139761  -0.010458   0.006613
    21  C    0.267964   0.371988   0.235693  -0.261780   0.018566   0.000335
    22  H    0.098064  -0.036054   0.001750   0.011483   0.003369   0.000120
    23  H   -0.006801   0.000237  -0.000479   0.000450  -0.000034   0.000072
    24  H   -0.071435   0.000166  -0.017773   0.004204  -0.000636   0.000347
    25  C   11.031644  -0.182710   0.334620   0.222827  -0.014287   0.041424
    26  H   -0.182710   0.474474  -0.019911  -0.023778  -0.013049   0.003223
    27  O    0.334620  -0.019911   8.223927   0.185965  -0.031052  -0.061265
    28  C    0.222827  -0.023778   0.185965   5.268537   0.407860   0.393247
    29  H   -0.014287  -0.013049  -0.031052   0.407860   0.548548  -0.018980
    30  H    0.041424   0.003223  -0.061265   0.393247  -0.018980   0.442468
    31  H   -0.012628  -0.013070  -0.032205   0.407845  -0.055347  -0.018791
              31
     1  C   -0.000008
     2  H   -0.000001
     3  H   -0.000001
     4  C   -0.000001
     5  H    0.000000
     6  N   -0.000004
     7  H    0.000009
     8  H    0.000000
     9  H    0.000000
    10  C   -0.000190
    11  H    0.000008
    12  C   -0.001198
    13  C   -0.001150
    14  H   -0.000492
    15  O   -0.000017
    16  C   -0.001696
    17  C   -0.007019
    18  C   -0.002828
    19  O   -0.000031
    20  C   -0.011676
    21  C    0.020205
    22  H    0.003031
    23  H   -0.000039
    24  H   -0.000503
    25  C   -0.012628
    26  H   -0.013070
    27  O   -0.032205
    28  C    0.407845
    29  H   -0.055347
    30  H   -0.018791
    31  H    0.551169
 Mulliken charges:
               1
     1  C   -0.463038
     2  H    0.223561
     3  H    0.201047
     4  C   -0.324196
     5  H    0.197844
     6  N    0.128127
     7  H    0.191108
     8  H    0.155088
     9  H    0.197848
    10  C    0.448846
    11  H    0.238662
    12  C   -0.384553
    13  C   -0.728107
    14  H    0.161934
    15  O   -0.405240
    16  C    2.248097
    17  C    0.632603
    18  C   -1.609109
    19  O   -0.363317
    20  C   -0.572476
    21  C   -0.450512
    22  H    0.106378
    23  H    0.381304
    24  H    0.255682
    25  C   -0.766692
    26  H    0.282577
    27  O   -0.161105
    28  C   -0.405054
    29  H    0.179844
    30  H    0.226222
    31  H    0.176626
 Sum of Mulliken charges =   0.00000
 Mulliken charges with hydrogens summed into heavy atoms:
               1
     1  C    0.152678
     4  C    0.226584
     6  N    0.128127
    10  C    0.687508
    12  C   -0.222619
    13  C   -0.728107
    15  O   -0.405240
    16  C    2.248097
    17  C    0.632603
    18  C   -1.502732
    19  O    0.017987
    20  C   -0.316794
    21  C   -0.167935
    25  C   -0.766692
    27  O   -0.161105
    28  C    0.177639
 Electronic spatial extent (au):  <R**2>=           5710.8277
 Charge=              0.0000 electrons
 Dipole moment (field-independent basis, Debye):
    X=             -6.2085    Y=             -8.4190    Z=             -0.1103  Tot=             10.4612
 Quadrupole moment (field-independent basis, Debye-Ang):
   XX=            -50.4147   YY=            -95.1993   ZZ=            -98.9908
   XY=             -4.9135   XZ=             -0.2829   YZ=             -0.1998
 Traceless Quadrupole moment (field-independent basis, Debye-Ang):
   XX=             31.1202   YY=            -13.6644   ZZ=            -17.4558
   XY=             -4.9135   XZ=             -0.2829   YZ=             -0.1998
 Octapole moment (field-independent basis, Debye-Ang**2):
  XXX=           -165.8008  YYY=            -50.7400  ZZZ=              0.1002  XYY=             -0.3311
  XXY=            -83.8086  XXZ=             -2.7595  XZZ=             -3.5719  YZZ=              0.4816
  YYZ=             -0.2384  XYZ=              1.9449
 Hexadecapole moment (field-independent basis, Debye-Ang**3):
 XXXX=          -4699.9007 YYYY=          -1217.3285 ZZZZ=           -128.6384 XXXY=           -151.0397
 XXXZ=             -0.2314 YYYX=            -41.8158 YYYZ=             -1.5386 ZZZX=              0.2931
 ZZZY=             -0.3118 XXYY=          -1040.8682 XXZZ=          -1071.0987 YYZZ=           -220.5467
 XXYZ=             -4.0587 YYXZ=             -3.7163 ZZXY=             -1.8820
 N-N= 1.047117672478D+03 E-N=-3.837658607184D+03  KE= 7.437600835809D+02
 1\1\GINC-DN35\FOpt\RwB97XD\6-311++G(d,p)\C12H15N1O3\CA12053\19-Oct-201
 6\0\\# wb97xd 6-311++g** opt geom=allcheck SCRF=(PCM,solvent=dichlorom
 ethane)\\Geom Opt s0\\0,1\C,3.6329227567,1.6408620519,0.2966775107\H,4
 .6724059749,1.9531376958,0.3805703647\H,3.1423020086,2.2526327461,-0.4
 670010702\C,4.8426065105,-0.4356423243,-0.3476419238\H,5.34549137,0.04
 69272552,-1.1900874059\N,3.5848442426,0.2335013203,-0.0578126602\H,3.1
 379062199,1.8124961086,1.2568692474\H,4.6522922247,-1.4771270741,-0.60
 31543463\H,5.5016735557,-0.4004919927,0.5238855653\C,2.4189774893,-0.4
 028020956,-0.149868828\H,2.4798379398,-1.4526764591,-0.4191115057\C,1.
 1748436426,0.1340884628,0.0588897124\C,0.0213299151,-0.713334489,-0.06
 62514589\H,1.0638340324,1.1758524719,0.3169889085\O,0.135314121,-1.937
 3336212,-0.3207336368\C,-1.341728729,-0.1528334401,0.1115907972\C,-2.4
 694537487,-1.0143769142,0.065092103\C,-1.5878131323,1.2078435868,0.325
 2534516\O,-2.3428318987,-2.3314498234,-0.1455295841\C,-3.7531308606,-0
 .5103067625,0.2396937678\C,-2.8601005594,1.7233851372,0.4935481766\H,-
 0.7596570731,1.9039543489,0.3563133092\H,-1.3696218289,-2.4859479971,-
 0.2673189931\H,-4.6008403467,-1.1832755514,0.2037465162\C,-3.953695975
 7,0.8483902249,0.4530240597\H,-2.9881409813,2.7849974477,0.6511527574\
 O,-5.2375437241,1.2356364535,0.6070450081\C,-5.5134983538,2.6115863007
 ,0.8212778654\H,-5.1790425759,3.2180497545,-0.0254246599\H,-6.59487055
 23,2.6858564444,0.9144801796\H,-5.0439196732,2.9700040136,1.741973072\
 \Version=ES64L-G09RevD.01\State=1-A\HF=-746.6884891\RMSD=7.487e-09\RMS
 F=5.479e-06\Dipole=2.8664176,2.9357904,0.3228814\Quadrupole=21.4463112
 ,-8.8712717,-12.5750395,-7.5992198,-3.022346,1.2735287\PG=C01 [X(C12H1
 5N1O3)]\\@


 THERE IS AN OLD, OLD RECIPE IN MAINE FOR STEWING COOT. PLACE THE
 BIRD IN A KETTLE OF WATER WITH A RED BUILDING BRICK FREE OF MORTAR AND
 BLEMISHES. PARBOIL THE COOT AND BRICK TOGETHER FOR THREE HOURS.
 POUR OFF THE WATER, REFILL THE KETTLE, AND AGAIN PARBOIL FOR THREE HOURS.
 ONCE AGAIN POUR OFF THE WATER, FOR THE LAST TIME ADD FRESH WATER,
 AND LET THE COOT AND BRICK SIMMER TOGETHER OVERNIGHT. IN THE MORNING,
 THROW AWAY THE COOT AND EAT THE BRICK.
 Job cpu time:       0 days 19 hours 13 minutes  1.3 seconds.
 File lengths (MBytes):  RWF=    302 Int=      0 D2E=      0 Chk=     17 Scr=      1
 Normal termination of Gaussian 09 at Wed Oct 19 06:57:07 2016.
