 Entering Gaussian System, Link 0=g09
 Input=3_optS1_DCM.com
 Output=3_optS1_DCM.out
 Initial command:
 /share/apps/gaussian/g09_D01/g09/l1.exe "/tmp/3908083.1.smserial.q/Gau-47037.inp" -scrdir="/tmp/3908083.1.smserial.q/"
 Entering Link 1 = /share/apps/gaussian/g09_D01/g09/l1.exe PID=     47038.
  
 Copyright (c) 1988,1990,1992,1993,1995,1998,2003,2009,2013,
            Gaussian, Inc.  All Rights Reserved.
  
 This is part of the Gaussian(R) 09 program.  It is based on
 the Gaussian(R) 03 system (copyright 2003, Gaussian, Inc.),
 the Gaussian(R) 98 system (copyright 1998, Gaussian, Inc.),
 the Gaussian(R) 94 system (copyright 1995, Gaussian, Inc.),
 the Gaussian 92(TM) system (copyright 1992, Gaussian, Inc.),
 the Gaussian 90(TM) system (copyright 1990, Gaussian, Inc.),
 the Gaussian 88(TM) system (copyright 1988, Gaussian, Inc.),
 the Gaussian 86(TM) system (copyright 1986, Carnegie Mellon
 University), and the Gaussian 82(TM) system (copyright 1983,
 Carnegie Mellon University). Gaussian is a federally registered
 trademark of Gaussian, Inc.
  
 This software contains proprietary and confidential information,
 including trade secrets, belonging to Gaussian, Inc.
  
 This software is provided under written license and may be
 used, copied, transmitted, or stored only in accord with that
 written license.
  
 The following legend is applicable only to US Government
 contracts under FAR:
  
                    RESTRICTED RIGHTS LEGEND
  
 Use, reproduction and disclosure by the US Government is
 subject to restrictions as set forth in subparagraphs (a)
 and (c) of the Commercial Computer Software - Restricted
 Rights clause in FAR 52.227-19.
  
 Gaussian, Inc.
 340 Quinnipiac St., Bldg. 40, Wallingford CT 06492
  
  
 ---------------------------------------------------------------
 Warning -- This program may not be used in any manner that
 competes with the business of Gaussian, Inc. or will provide
 assistance to any competitor of Gaussian, Inc.  The licensee
 of this program is prohibited from giving any competitor of
 Gaussian, Inc. access to this program.  By using this program,
 the user acknowledges that Gaussian, Inc. is engaged in the
 business of creating and licensing software in the field of
 computational chemistry and represents and warrants to the
 licensee that it is not a competitor of Gaussian, Inc. and that
 it will not use this program in any manner prohibited above.
 ---------------------------------------------------------------
  

 Cite this work as:
 Gaussian 09, Revision D.01,
 M. J. Frisch, G. W. Trucks, H. B. Schlegel, G. E. Scuseria, 
 M. A. Robb, J. R. Cheeseman, G. Scalmani, V. Barone, B. Mennucci, 
 G. A. Petersson, H. Nakatsuji, M. Caricato, X. Li, H. P. Hratchian, 
 A. F. Izmaylov, J. Bloino, G. Zheng, J. L. Sonnenberg, M. Hada, 
 M. Ehara, K. Toyota, R. Fukuda, J. Hasegawa, M. Ishida, T. Nakajima, 
 Y. Honda, O. Kitao, H. Nakai, T. Vreven, J. A. Montgomery, Jr., 
 J. E. Peralta, F. Ogliaro, M. Bearpark, J. J. Heyd, E. Brothers, 
 K. N. Kudin, V. N. Staroverov, T. Keith, R. Kobayashi, J. Normand, 
 K. Raghavachari, A. Rendell, J. C. Burant, S. S. Iyengar, J. Tomasi, 
 M. Cossi, N. Rega, J. M. Millam, M. Klene, J. E. Knox, J. B. Cross, 
 V. Bakken, C. Adamo, J. Jaramillo, R. Gomperts, R. E. Stratmann, 
 O. Yazyev, A. J. Austin, R. Cammi, C. Pomelli, J. W. Ochterski, 
 R. L. Martin, K. Morokuma, V. G. Zakrzewski, G. A. Voth, 
 P. Salvador, J. J. Dannenberg, S. Dapprich, A. D. Daniels, 
 O. Farkas, J. B. Foresman, J. V. Ortiz, J. Cioslowski, 
 and D. J. Fox, Gaussian, Inc., Wallingford CT, 2013.
 
 ******************************************
 Gaussian 09:  ES64L-G09RevD.01 24-Apr-2013
                30-Jan-2017 
 ******************************************
 %chk=3_optS1_DCM.chk
 %mem=12GB
 %nproc=4
 Will use up to    4 processors via shared memory.
 ----------------------------------------------------------------------
 # wb97xd 6-311++g** opt td=(nstates=1,root=1) SCRF=(PCM,solvent=dichlo
 romethane)
 ----------------------------------------------------------------------
 1/14=-1,18=20,19=15,26=3,38=1/1,3;
 2/9=110,12=2,17=6,18=5,40=1/2;
 3/5=4,6=6,7=1111,11=9,16=1,25=1,30=1,70=2201,71=1,72=9,74=-58/1,2,8,3;
 4//1;
 5/5=2,38=5,53=9/2;
 8/6=1,10=2,107=1,108=1/1;
 9/8=1,15=2,41=1,42=1,70=2/14;
 10/5=4/2;
 6/7=2,8=2,9=2,10=2/1;
 7/12=6,13=5,14=1/1,2,3,16;
 1/14=-1,18=20,19=15,26=3/3(2);
 2/9=110/2;
 99//99;
 2/9=110/2;
 3/5=4,6=6,7=1111,11=9,16=1,25=1,30=1,70=2205,71=1,72=9,74=-58/1,2,8,3;
 4/5=5,16=3,69=1/1;
 5/5=2,38=5,53=9/2;
 8/6=1,10=2,107=1,108=1/1;
 9/8=1,15=2,41=1,42=1,49=4,70=2/14;
 10/5=4/2;
 7/12=6,13=5,14=1/1,2,3,16;
 1/14=-1,18=20,19=15,26=3/3(-8);
 2/9=110/2;
 6/7=2,8=2,9=2,10=2/1;
 99//99;
 ---------------------
 restarted optimzation
 ---------------------
 Symbolic Z-matrix:
 Charge =  0 Multiplicity = 1
 C                     4.00504   1.61201   1.21156 
 H                     4.92678   1.93054   1.70055 
 H                     3.60199   2.46227   0.63883 
 C                     5.54048   0.49504  -0.33555 
 H                     5.56681   1.27741  -1.10878 
 N                     4.2802    0.4668    0.37763 
 H                     3.28415   1.34593   1.98748 
 H                     5.70821  -0.46923  -0.81819 
 H                     6.35835   0.67199   0.36662 
 C                     3.22921  -0.18374  -0.22766 
 H                     3.5157   -0.98751  -0.89452 
 C                     1.89299   0.06607  -0.01604 
 C                     0.86268  -0.67797  -0.57137 
 H                     1.58819   0.88464   0.62468 
 O                     1.15691  -1.67137  -1.46785 
 C                    -0.56737  -0.3787   -0.34303 
 C                    -1.28278  -1.12765   0.68074 
 C                    -1.25668   0.56108  -1.08436 
 O                    -0.70922  -2.05113   1.29359 
 C                    -2.66041  -0.7968    0.93034 
 C                    -2.59282   0.85241  -0.82907 
 H                    -0.73986   1.10295  -1.86773 
 H                     1.03074  -2.30215  -0.75588 
 H                    -3.18793  -1.33393   1.70837 
 C                    -3.29574   0.16957   0.19546 
 H                    -3.08598   1.61385  -1.41835 
 O                    -4.59378   0.4163    0.49423 
 C                    -5.28445   1.42059  -0.21914 
 H                    -5.35363   1.1839   -1.2866 
 H                    -6.28653   1.44926   0.20429 
 H                    -4.81394   2.4015   -0.08974 
 

 GradGradGradGradGradGradGradGradGradGradGradGradGradGradGradGradGradGrad
 Berny optimization.
 Initialization pass.
                           ----------------------------
                           !    Initial Parameters    !
                           ! (Angstroms and Degrees)  !
 --------------------------                            --------------------------
 ! Name  Definition              Value          Derivative Info.                !
 --------------------------------------------------------------------------------
 ! R1    R(1,2)                  1.091          estimate D2E/DX2                !
 ! R2    R(1,3)                  1.1015         estimate D2E/DX2                !
 ! R3    R(1,6)                  1.4431         estimate D2E/DX2                !
 ! R4    R(1,7)                  1.092          estimate D2E/DX2                !
 ! R5    R(4,5)                  1.1003         estimate D2E/DX2                !
 ! R6    R(4,6)                  1.4484         estimate D2E/DX2                !
 ! R7    R(4,8)                  1.0913         estimate D2E/DX2                !
 ! R8    R(4,9)                  1.0924         estimate D2E/DX2                !
 ! R9    R(6,10)                 1.3763         estimate D2E/DX2                !
 ! R10   R(10,11)                1.083          estimate D2E/DX2                !
 ! R11   R(10,12)                1.3757         estimate D2E/DX2                !
 ! R12   R(12,13)                1.3869         estimate D2E/DX2                !
 ! R13   R(12,14)                1.0833         estimate D2E/DX2                !
 ! R14   R(13,15)                1.3701         estimate D2E/DX2                !
 ! R15   R(13,16)                1.4788         estimate D2E/DX2                !
 ! R16   R(15,23)                0.9595         estimate D2E/DX2                !
 ! R17   R(16,17)                1.4563         estimate D2E/DX2                !
 ! R18   R(16,18)                1.3813         estimate D2E/DX2                !
 ! R19   R(17,19)                1.2479         estimate D2E/DX2                !
 ! R20   R(17,20)                1.4386         estimate D2E/DX2                !
 ! R21   R(18,21)                1.3911         estimate D2E/DX2                !
 ! R22   R(18,22)                1.0837         estimate D2E/DX2                !
 ! R23   R(20,24)                1.0826         estimate D2E/DX2                !
 ! R24   R(20,25)                1.3702         estimate D2E/DX2                !
 ! R25   R(21,25)                1.4178         estimate D2E/DX2                !
 ! R26   R(21,26)                1.0818         estimate D2E/DX2                !
 ! R27   R(25,27)                1.3546         estimate D2E/DX2                !
 ! R28   R(27,28)                1.4123         estimate D2E/DX2                !
 ! R29   R(28,29)                1.0956         estimate D2E/DX2                !
 ! R30   R(28,30)                1.0882         estimate D2E/DX2                !
 ! R31   R(28,31)                1.0956         estimate D2E/DX2                !
 ! A1    A(2,1,3)              108.4704         estimate D2E/DX2                !
 ! A2    A(2,1,6)              109.2456         estimate D2E/DX2                !
 ! A3    A(2,1,7)              108.084          estimate D2E/DX2                !
 ! A4    A(3,1,6)              112.4482         estimate D2E/DX2                !
 ! A5    A(3,1,7)              108.4182         estimate D2E/DX2                !
 ! A6    A(6,1,7)              110.0657         estimate D2E/DX2                !
 ! A7    A(5,4,6)              112.3778         estimate D2E/DX2                !
 ! A8    A(5,4,8)              108.289          estimate D2E/DX2                !
 ! A9    A(5,4,9)              108.5794         estimate D2E/DX2                !
 ! A10   A(6,4,8)              109.5292         estimate D2E/DX2                !
 ! A11   A(6,4,9)              109.7636         estimate D2E/DX2                !
 ! A12   A(8,4,9)              108.2011         estimate D2E/DX2                !
 ! A13   A(1,6,4)              115.7837         estimate D2E/DX2                !
 ! A14   A(1,6,10)             118.9232         estimate D2E/DX2                !
 ! A15   A(4,6,10)             117.2026         estimate D2E/DX2                !
 ! A16   A(6,10,11)            114.8101         estimate D2E/DX2                !
 ! A17   A(6,10,12)            126.031          estimate D2E/DX2                !
 ! A18   A(11,10,12)           119.1065         estimate D2E/DX2                !
 ! A19   A(10,12,13)           124.2313         estimate D2E/DX2                !
 ! A20   A(10,12,14)           120.0977         estimate D2E/DX2                !
 ! A21   A(13,12,14)           115.6699         estimate D2E/DX2                !
 ! A22   A(12,13,15)           119.4351         estimate D2E/DX2                !
 ! A23   A(12,13,16)           123.2307         estimate D2E/DX2                !
 ! A24   A(15,13,16)           117.0946         estimate D2E/DX2                !
 ! A25   A(13,15,23)            87.8743         estimate D2E/DX2                !
 ! A26   A(13,16,17)           118.6553         estimate D2E/DX2                !
 ! A27   A(13,16,18)           122.5085         estimate D2E/DX2                !
 ! A28   A(17,16,18)           118.8186         estimate D2E/DX2                !
 ! A29   A(16,17,19)           120.0008         estimate D2E/DX2                !
 ! A30   A(16,17,20)           118.3022         estimate D2E/DX2                !
 ! A31   A(19,17,20)           121.6748         estimate D2E/DX2                !
 ! A32   A(16,18,21)           121.5538         estimate D2E/DX2                !
 ! A33   A(16,18,22)           119.3515         estimate D2E/DX2                !
 ! A34   A(21,18,22)           119.0773         estimate D2E/DX2                !
 ! A35   A(17,20,24)           118.5016         estimate D2E/DX2                !
 ! A36   A(17,20,25)           120.8737         estimate D2E/DX2                !
 ! A37   A(24,20,25)           120.6232         estimate D2E/DX2                !
 ! A38   A(18,21,25)           120.5269         estimate D2E/DX2                !
 ! A39   A(18,21,26)           119.0314         estimate D2E/DX2                !
 ! A40   A(25,21,26)           120.4397         estimate D2E/DX2                !
 ! A41   A(20,25,21)           119.825          estimate D2E/DX2                !
 ! A42   A(20,25,27)           117.03           estimate D2E/DX2                !
 ! A43   A(21,25,27)           123.1438         estimate D2E/DX2                !
 ! A44   A(25,27,28)           119.1259         estimate D2E/DX2                !
 ! A45   A(27,28,29)           111.6788         estimate D2E/DX2                !
 ! A46   A(27,28,30)           105.8144         estimate D2E/DX2                !
 ! A47   A(27,28,31)           111.5304         estimate D2E/DX2                !
 ! A48   A(29,28,30)           109.0654         estimate D2E/DX2                !
 ! A49   A(29,28,31)           109.6109         estimate D2E/DX2                !
 ! A50   A(30,28,31)           109.0216         estimate D2E/DX2                !
 ! D1    D(2,1,6,4)            -38.6909         estimate D2E/DX2                !
 ! D2    D(2,1,6,10)           173.4273         estimate D2E/DX2                !
 ! D3    D(3,1,6,4)             81.7949         estimate D2E/DX2                !
 ! D4    D(3,1,6,10)           -66.0869         estimate D2E/DX2                !
 ! D5    D(7,1,6,4)           -157.2171         estimate D2E/DX2                !
 ! D6    D(7,1,6,10)            54.9012         estimate D2E/DX2                !
 ! D7    D(5,4,6,1)            -67.4573         estimate D2E/DX2                !
 ! D8    D(5,4,6,10)            80.994          estimate D2E/DX2                !
 ! D9    D(8,4,6,1)            172.1374         estimate D2E/DX2                !
 ! D10   D(8,4,6,10)           -39.4113         estimate D2E/DX2                !
 ! D11   D(9,4,6,1)             53.4778         estimate D2E/DX2                !
 ! D12   D(9,4,6,10)          -158.071          estimate D2E/DX2                !
 ! D13   D(1,6,10,11)          175.7435         estimate D2E/DX2                !
 ! D14   D(1,6,10,12)           -6.9304         estimate D2E/DX2                !
 ! D15   D(4,6,10,11)           28.3095         estimate D2E/DX2                !
 ! D16   D(4,6,10,12)         -154.3644         estimate D2E/DX2                !
 ! D17   D(6,10,12,13)        -175.0108         estimate D2E/DX2                !
 ! D18   D(6,10,12,14)           4.5887         estimate D2E/DX2                !
 ! D19   D(11,10,12,13)          2.2112         estimate D2E/DX2                !
 ! D20   D(11,10,12,14)       -178.1893         estimate D2E/DX2                !
 ! D21   D(10,12,13,15)         -4.961          estimate D2E/DX2                !
 ! D22   D(10,12,13,16)       -179.1685         estimate D2E/DX2                !
 ! D23   D(14,12,13,15)        175.4235         estimate D2E/DX2                !
 ! D24   D(14,12,13,16)          1.216          estimate D2E/DX2                !
 ! D25   D(12,13,15,23)        101.3638         estimate D2E/DX2                !
 ! D26   D(16,13,15,23)        -84.0777         estimate D2E/DX2                !
 ! D27   D(12,13,16,17)        -97.5598         estimate D2E/DX2                !
 ! D28   D(12,13,16,18)         83.9874         estimate D2E/DX2                !
 ! D29   D(15,13,16,17)         88.1065         estimate D2E/DX2                !
 ! D30   D(15,13,16,18)        -90.3463         estimate D2E/DX2                !
 ! D31   D(13,16,17,19)         -3.9236         estimate D2E/DX2                !
 ! D32   D(13,16,17,20)        177.7637         estimate D2E/DX2                !
 ! D33   D(18,16,17,19)        174.5872         estimate D2E/DX2                !
 ! D34   D(18,16,17,20)         -3.7255         estimate D2E/DX2                !
 ! D35   D(13,16,18,21)       -178.2608         estimate D2E/DX2                !
 ! D36   D(13,16,18,22)          0.2071         estimate D2E/DX2                !
 ! D37   D(17,16,18,21)          3.2889         estimate D2E/DX2                !
 ! D38   D(17,16,18,22)       -178.2433         estimate D2E/DX2                !
 ! D39   D(16,17,20,24)       -178.4336         estimate D2E/DX2                !
 ! D40   D(16,17,20,25)          2.0005         estimate D2E/DX2                !
 ! D41   D(19,17,20,24)          3.2835         estimate D2E/DX2                !
 ! D42   D(19,17,20,25)       -176.2825         estimate D2E/DX2                !
 ! D43   D(16,18,21,25)         -1.0389         estimate D2E/DX2                !
 ! D44   D(16,18,21,26)        178.4543         estimate D2E/DX2                !
 ! D45   D(22,18,21,25)       -179.5108         estimate D2E/DX2                !
 ! D46   D(22,18,21,26)         -0.0176         estimate D2E/DX2                !
 ! D47   D(17,20,25,21)          0.2362         estimate D2E/DX2                !
 ! D48   D(17,20,25,27)        179.8648         estimate D2E/DX2                !
 ! D49   D(24,20,25,21)       -179.3206         estimate D2E/DX2                !
 ! D50   D(24,20,25,27)          0.3081         estimate D2E/DX2                !
 ! D51   D(18,21,25,20)         -0.7974         estimate D2E/DX2                !
 ! D52   D(18,21,25,27)        179.5976         estimate D2E/DX2                !
 ! D53   D(26,21,25,20)        179.7165         estimate D2E/DX2                !
 ! D54   D(26,21,25,27)          0.1116         estimate D2E/DX2                !
 ! D55   D(20,25,27,28)        178.8492         estimate D2E/DX2                !
 ! D56   D(21,25,27,28)         -1.5356         estimate D2E/DX2                !
 ! D57   D(25,27,28,29)         62.6032         estimate D2E/DX2                !
 ! D58   D(25,27,28,30)       -178.8464         estimate D2E/DX2                !
 ! D59   D(25,27,28,31)        -60.4283         estimate D2E/DX2                !
 --------------------------------------------------------------------------------
 Trust Radius=3.00D-01 FncErr=1.00D-07 GrdErr=1.00D-06
 Number of steps in this run=    150 maximum allowed number of steps=    186.
 GradGradGradGradGradGradGradGradGradGradGradGradGradGradGradGradGradGrad

                          Input orientation:                          
 ---------------------------------------------------------------------
 Center     Atomic      Atomic             Coordinates (Angstroms)
 Number     Number       Type             X           Y           Z
 ---------------------------------------------------------------------
      1          6           0        4.005041    1.612005    1.211556
      2          1           0        4.926779    1.930542    1.700546
      3          1           0        3.601985    2.462266    0.638831
      4          6           0        5.540482    0.495036   -0.335547
      5          1           0        5.566807    1.277412   -1.108784
      6          7           0        4.280198    0.466798    0.377629
      7          1           0        3.284152    1.345928    1.987476
      8          1           0        5.708207   -0.469233   -0.818190
      9          1           0        6.358352    0.671990    0.366615
     10          6           0        3.229207   -0.183741   -0.227663
     11          1           0        3.515702   -0.987506   -0.894518
     12          6           0        1.892988    0.066070   -0.016043
     13          6           0        0.862676   -0.677970   -0.571365
     14          1           0        1.588190    0.884639    0.624684
     15          8           0        1.156911   -1.671372   -1.467845
     16          6           0       -0.567367   -0.378698   -0.343026
     17          6           0       -1.282783   -1.127646    0.680743
     18          6           0       -1.256683    0.561084   -1.084358
     19          8           0       -0.709224   -2.051132    1.293589
     20          6           0       -2.660413   -0.796802    0.930337
     21          6           0       -2.592816    0.852414   -0.829069
     22          1           0       -0.739858    1.102954   -1.867731
     23          1           0        1.030744   -2.302154   -0.755884
     24          1           0       -3.187935   -1.333928    1.708365
     25          6           0       -3.295742    0.169573    0.195458
     26          1           0       -3.085976    1.613851   -1.418351
     27          8           0       -4.593783    0.416303    0.494227
     28          6           0       -5.284451    1.420594   -0.219137
     29          1           0       -5.353633    1.183898   -1.286599
     30          1           0       -6.286534    1.449257    0.204286
     31          1           0       -4.813935    2.401502   -0.089738
 ---------------------------------------------------------------------
                    Distance matrix (angstroms):
                    1          2          3          4          5
     1  C    0.000000
     2  H    1.090953   0.000000
     3  H    1.101550   1.779058   0.000000
     4  C    2.449230   2.565733   2.928682   0.000000
     5  H    2.816921   2.954412   2.884192   1.100318   0.000000
     6  N    1.443137   2.076228   2.123698   1.448355   2.126472
     7  H    1.092030   1.767010   1.779346   3.348355   3.847341
     8  H    3.369302   3.565611   3.892656   1.091279   1.776290
     9  H    2.671259   2.326527   3.297992   1.092362   1.780416
    10  C    2.428574   3.327151   2.809115   2.411300   2.894083
    11  H    3.381192   4.152168   3.776179   2.571014   3.063135
    12  C    2.890966   3.953077   3.015176   3.686503   4.019749
    13  C    4.277529   5.336932   4.339294   4.828397   5.122615
    14  H    2.591264   3.660269   2.558218   4.085884   4.357588
    15  O    5.106036   6.101179   5.244372   5.019075   5.317089
    16  C    5.223652   6.300350   5.139904   6.170031   6.399779
    17  C    5.979008   6.996511   6.062193   7.086811   7.476871
    18  C    5.836214   6.918548   5.494591   6.838606   6.861030
    19  O    5.970728   6.912588   6.275826   6.942325   7.499278
    20  C    7.092934   8.099204   7.065701   8.397975   8.726255
    21  C    6.947866   8.006599   6.566728   8.156091   8.175470
    22  H    5.679367   6.747465   5.194438   6.493060   6.354562
    23  H    5.295083   6.255306   5.590725   5.323410   5.789102
    24  H    7.788725   8.746737   7.852261   9.149205   9.560383
    25  C    7.510959   8.542608   7.282284   8.858146   9.026247
    26  H    7.562998   8.604188   7.048449   8.765842   8.664853
    27  O    8.711144   9.715412   8.448520  10.168483  10.322245
    28  C    9.400967  10.402617   8.988322  10.865053  10.888607
    29  H    9.695815  10.731607   9.249032  10.957225  10.922288
    30  H   10.342031  11.322933   9.949765  11.877721  11.927086
    31  H    8.949358   9.915061   8.447616  10.531334  10.491036
                    6          7          8          9         10
     6  N    0.000000
     7  H    2.087243   0.000000
     8  H    2.084550   4.128270   0.000000
     9  H    2.088289   3.540069   1.768853   0.000000
    10  C    1.376285   2.692535   2.564307   3.298028   0.000000
    11  H    2.077935   3.715430   2.254221   3.524917   1.082965
    12  C    2.452414   2.754535   3.935211   4.522504   1.375743
    13  C    3.727001   4.062927   4.856302   5.736258   2.441897
    14  H    2.735422   2.224023   4.570492   4.781868   2.135619
    15  O    4.210994   5.056530   4.751998   5.992627   2.836460
    16  C    4.973238   4.820765   6.294188   7.040818   3.803326
    17  C    5.794902   5.355653   7.180129   7.856482   4.698320
    18  C    5.727421   5.538170   7.045714   7.752831   4.627299
    19  O    5.663328   5.288530   6.938691   7.630551   4.616557
    20  C    7.076316   6.406769   8.555609   9.154958   6.033609
    21  C    6.988787   6.535689   8.405585   9.032476   5.944010
    22  H    5.536000   5.578021   6.719438   7.454034   4.483178
    23  H    4.417114   5.090420   5.024156   6.203946   3.098375
    24  H    7.796569   7.010524   9.288300   9.846603   6.800797
    25  C    7.583956   6.920271   9.083317   9.668674   6.548192
    26  H    7.668233   7.228414   9.057433   9.657564   6.673126
    27  O    8.874891   8.071918  10.422937  10.955862   7.879108
    28  C    9.630595   8.848484  11.169997  11.681540   8.663506
    29  H    9.802785   9.238893  11.194488  11.839162   8.755394
    30  H   10.613722   9.735937  12.190155  12.669792   9.664501
    31  H    9.309391   8.426628  10.931022  11.314569   8.449535
                   11         12         13         14         15
    11  H    0.000000
    12  C    2.124839   0.000000
    13  C    2.690499   1.386911   0.000000
    14  H    3.086779   1.083277   2.097296   0.000000
    15  O    2.521958   2.380807   1.370072   3.331347   0.000000
    16  C    4.164882   2.521524   1.478758   2.679349   2.430917
    17  C    5.052380   3.463523   2.524476   3.506411   3.296085
    18  C    5.020939   3.362553   2.508007   3.334489   3.310039
    19  O    4.875358   3.601276   2.799017   3.787386   3.354429
    20  C    6.442892   4.730079   3.831630   4.579443   4.592179
    21  C    6.379936   4.626206   3.787996   4.426652   4.564864
    22  H    4.840140   3.381679   2.724036   3.417543   3.384454
    23  H    2.814700   2.626654   1.643249   3.517437   0.959527
    24  H    7.199566   5.545210   4.694135   5.376595   5.392575
    25  C    6.994473   5.194070   4.312631   4.954629   5.097232
    26  H    7.115027   5.399276   4.643456   5.153016   5.366305
    27  O    8.346439   6.516229   5.666204   6.201060   6.424842
    28  C    9.148649   7.306956   6.505014   6.944960   7.253321
    29  H    9.139684   7.441597   6.528446   7.206349   7.111441
    30  H   10.160168   8.298574   7.499195   7.906125   8.242525
    31  H    9.028616   7.102288   6.476035   6.618042   7.357886
                   16         17         18         19         20
    16  C    0.000000
    17  C    1.456313   0.000000
    18  C    1.381275   2.442964   0.000000
    19  O    2.344284   1.247949   3.574635   0.000000
    20  C    2.485378   1.438617   2.805942   2.347857   0.000000
    21  C    2.419570   2.813602   1.391150   4.060071   2.412466
    22  H    2.133019   3.430024   1.083699   4.465774   3.889317
    23  H    2.534579   2.965767   3.679449   2.700155   4.328287
    24  H    3.462376   2.174434   3.888458   2.613509   1.082641
    25  C    2.834536   2.443416   2.439051   3.581550   1.370245
    26  H    3.386734   3.895319   2.136863   5.141563   3.392446
    27  O    4.188681   3.658044   3.694473   4.670869   2.323733
    28  C    5.050117   4.828733   4.208358   5.939185   3.622666
    29  H    5.122536   5.077942   4.148951   6.220396   4.011410
    30  H    6.029083   5.648448   5.267718   6.674256   4.326741
    31  H    5.082028   5.051491   4.126796   6.211940   3.988403
                   21         22         23         24         25
    21  C    0.000000
    22  H    2.138935   0.000000
    23  H    4.804877   3.995747   0.000000
    24  H    3.401886   4.971915   4.980686   0.000000
    25  C    1.417756   3.414746   5.072767   2.135656   0.000000
    26  H    1.081779   2.442791   5.720257   4.298389   2.175849
    27  O    2.438273   4.571988   6.370878   2.552224   1.354640
    28  C    2.817755   4.844800   7.350417   3.962075   2.385772
    29  H    2.818036   4.650934   7.293455   4.472081   2.731348
    30  H    3.881700   5.931171   8.278742   4.428283   3.253076
    31  H    2.807072   4.630938   7.531826   4.453144   2.714361
                   26         27         28         29         30
    26  H    0.000000
    27  O    2.713956   0.000000
    28  C    2.511723   1.412272   0.000000
    29  H    2.311815   2.082766   1.095576   0.000000
    30  H    3.592160   2.004112   1.088246   1.778611   0.000000
    31  H    2.317639   2.080985   1.095587   1.790617   1.778136
                   31
    31  H    0.000000
 Stoichiometry    C12H15NO3
 Framework group  C1[X(C12H15NO3)]
 Deg. of freedom    87
 Full point group                 C1      NOp   1
 Largest Abelian subgroup         C1      NOp   1
 Largest concise Abelian subgroup C1      NOp   1
                         Standard orientation:                         
 ---------------------------------------------------------------------
 Center     Atomic      Atomic             Coordinates (Angstroms)
 Number     Number       Type             X           Y           Z
 ---------------------------------------------------------------------
      1          6           0        3.999896   -1.584823   -1.245460
      2          1           0        4.921361   -1.892278   -1.742000
      3          1           0        3.596143   -2.448272   -0.693327
      4          6           0        5.536291   -0.506648    0.327994
      5          1           0        5.561978   -1.307409    1.082197
      6          7           0        4.276019   -0.460225   -0.384251
      7          1           0        3.279216   -1.299570   -2.014732
      8          1           0        5.704826    0.445599    0.833674
      9          1           0        6.354002   -0.667349   -0.378249
     10          6           0        3.225579    0.176447    0.236544
     11          1           0        3.512754    0.963709    0.922519
     12          6           0        1.889150   -0.067093    0.019028
     13          6           0        0.859466    0.664237    0.592114
     14          1           0        1.583661   -0.869768   -0.641183
     15          8           0        1.154542    1.635554    1.512207
     16          6           0       -0.570829    0.371729    0.356698
     17          6           0       -1.285639    1.145668   -0.648743
     18          6           0       -1.260915   -0.585030    1.075247
     19          8           0       -0.711322    2.083144   -1.239231
     20          6           0       -2.663547    0.822065   -0.906169
     21          6           0       -2.597294   -0.869028    0.813076
     22          1           0       -0.744528   -1.146007    1.845348
     23          1           0        1.028888    2.283375    0.815621
     24          1           0       -3.190635    1.378179   -1.671040
     25          6           0       -3.299668   -0.161170   -0.194713
     26          1           0       -3.091077   -1.644002    1.383900
     27          8           0       -4.597919   -0.399567   -0.499280
     28          6           0       -5.289410   -1.420143    0.189758
     29          1           0       -5.358378   -1.209122    1.262605
     30          1           0       -6.291523   -1.437785   -0.234195
     31          1           0       -4.819712   -2.398047    0.036797
 ---------------------------------------------------------------------
 Rotational constants (GHZ):      1.2393749      0.2047096      0.1965191
 Standard basis: 6-311++G(d,p) (5D, 7F)
 There are   473 symmetry adapted cartesian basis functions of A   symmetry.
 There are   457 symmetry adapted basis functions of A   symmetry.
   457 basis functions,   711 primitive gaussians,   473 cartesian basis functions
    59 alpha electrons       59 beta electrons
       nuclear repulsion energy      1042.6173660779 Hartrees.
 NAtoms=   31 NActive=   31 NUniq=   31 SFac= 1.00D+00 NAtFMM=   60 NAOKFM=F Big=F
 Integral buffers will be    131072 words long.
 Raffenetti 1 integral format.
 Two-electron integral symmetry is turned on.
 Nuclear repulsion after empirical dispersion term =     1042.5989197713 Hartrees.
 ------------------------------------------------------------------------------
 Polarizable Continuum Model (PCM)
 =================================
 Model                : PCM (using non-symmetric T matrix).
 Atomic radii         : UFF (Universal Force Field).
 Polarization charges : Total charges.
 Charge compensation  : None.
 Solution method      : On-the-fly selection.
 Cavity type          : Scaled VdW (van der Waals Surface) (Alpha=1.100).
 Cavity algorithm     : GePol (No added spheres)
                        Default sphere list used, NSphG=   31.
                        Lebedev-Laikov grids with approx.  5.0 points / Ang**2.
                        Smoothing algorithm: Karplus/York (Gamma=1.0000).
                        Polarization charges: spherical gaussians, with
                                              point-specific exponents (IZeta= 3).
                        Self-potential: point-specific (ISelfS= 7).
                        Self-field    : sphere-specific E.n sum rule (ISelfD= 2).
 1st derivatives      : Analytical E(r).r(x)/FMM algorithm (CHGder, D1EAlg=3).
                        Cavity 1st derivative terms included.
 Solvent              : Dichloromethane, Eps=   8.930000 Eps(inf)=   2.028346
 ------------------------------------------------------------------------------
 One-electron integrals computed using PRISM.
 NBasis=   457 RedAO= T EigKep=  2.09D-06  NBF=   457
 NBsUse=   455 1.00D-06 EigRej=  7.94D-07 NBFU=   455
 ExpMin= 3.60D-02 ExpMax= 8.59D+03 ExpMxC= 1.30D+03 IAcc=3 IRadAn=         5 AccDes= 0.00D+00
 Harris functional with IExCor= 4639 and IRadAn=       5 diagonalized for initial guess.
 HarFok:  IExCor= 4639 AccDes= 0.00D+00 IRadAn=         5 IDoV= 1 UseB2=F ITyADJ=14
 ICtDFT=  3500011 ScaDFX=  1.000000  1.000000  1.000000  1.000000
 FoFCou: FMM=F IPFlag=           0 FMFlag=      100000 FMFlg1=           0
         NFxFlg=           0 DoJE=T BraDBF=F KetDBF=T FulRan=T
         wScrn=  0.000000 ICntrl=     500 IOpCl=  0 I1Cent=   200000004 NGrid=           0
         NMat0=    1 NMatS0=      1 NMatT0=    0 NMatD0=    1 NMtDS0=    0 NMtDT0=    0
 Petite list used in FoFCou.
 Requested convergence on RMS density matrix=1.00D-08 within 128 cycles.
 Requested convergence on MAX density matrix=1.00D-06.
 Requested convergence on             energy=1.00D-06.
 No special actions if energy rises.
 Inv3:  Mode=1 IEnd=    17265603.
 Iteration    1 A*A^-1 deviation from unit magnitude is 5.33D-15 for   2359.
 Iteration    1 A*A^-1 deviation from orthogonality  is 4.69D-15 for   2347    194.
 Iteration    1 A^-1*A deviation from unit magnitude is 5.22D-15 for   2359.
 Iteration    1 A^-1*A deviation from orthogonality  is 1.48D-13 for   1925   1789.
 Error on total polarization charges =  0.01487
 SCF Done:  E(RwB97XD) =  -746.593439263     A.U. after   20 cycles
            NFock= 20  Conv=0.34D-08     -V/T= 2.0040
 DoSCS=F DFT=T ScalE2(SS,OS)=  1.000000  1.000000
 ExpMin= 3.60D-02 ExpMax= 8.59D+03 ExpMxC= 1.30D+03 IAcc=3 IRadAn=         5 AccDes= 0.00D+00
 HarFok:  IExCor=  205 AccDes= 0.00D+00 IRadAn=         5 IDoV=-2 UseB2=F ITyADJ=14
 ICtDFT= 12500011 ScaDFX=  1.000000  1.000000  1.000000  1.000000
 Range of M.O.s used for correlation:    17   455
 NBasis=   457 NAE=    59 NBE=    59 NFC=    16 NFV=     0
 NROrb=    439 NOA=    43 NOB=    43 NVA=   396 NVB=   396

 **** Warning!!: The largest alpha MO coefficient is  0.12340000D+03

 Would need an additional         31299800000 words for in-memory AO integral storage.
 NEqPCM:  Using equilibrium solvation (IEInf=0, Eps=   8.9300, EpsInf=   2.0283)
 Orbital symmetries:
       Occupied  (A) (A) (A) (A) (A) (A) (A) (A) (A) (A) (A) (A)
                 (A) (A) (A) (A) (A) (A) (A) (A) (A) (A) (A) (A)
                 (A) (A) (A) (A) (A) (A) (A) (A) (A) (A) (A) (A)
                 (A) (A) (A) (A) (A) (A) (A) (A) (A) (A) (A) (A)
                 (A) (A) (A) (A) (A) (A) (A) (A) (A) (A) (A)
       Virtual   (A) (A) (A) (A) (A) (A) (A) (A) (A) (A) (A) (A)
                 (A) (A) (A) (A) (A) (A) (A) (A) (A) (A) (A) (A)
                 (A) (A) (A) (A) (A) (A) (A) (A) (A) (A) (A) (A)
                 (A) (A) (A) (A) (A) (A) (A) (A) (A) (A) (A) (A)
                 (A) (A) (A) (A) (A) (A) (A) (A) (A) (A) (A) (A)
                 (A) (A) (A) (A) (A) (A) (A) (A) (A) (A) (A) (A)
                 (A) (A) (A) (A) (A) (A) (A) (A) (A) (A) (A) (A)
                 (A) (A) (A) (A) (A) (A) (A) (A) (A) (A) (A) (A)
                 (A) (A) (A) (A) (A) (A) (A) (A) (A) (A) (A) (A)
                 (A) (A) (A) (A) (A) (A) (A) (A) (A) (A) (A) (A)
                 (A) (A) (A) (A) (A) (A) (A) (A) (A) (A) (A) (A)
                 (A) (A) (A) (A) (A) (A) (A) (A) (A) (A) (A) (A)
                 (A) (A) (A) (A) (A) (A) (A) (A) (A) (A) (A) (A)
                 (A) (A) (A) (A) (A) (A) (A) (A) (A) (A) (A) (A)
                 (A) (A) (A) (A) (A) (A) (A) (A) (A) (A) (A) (A)
                 (A) (A) (A) (A) (A) (A) (A) (A) (A) (A) (A) (A)
                 (A) (A) (A) (A) (A) (A) (A) (A) (A) (A) (A) (A)
                 (A) (A) (A) (A) (A) (A) (A) (A) (A) (A) (A) (A)
                 (A) (A) (A) (A) (A) (A) (A) (A) (A) (A) (A) (A)
                 (A) (A) (A) (A) (A) (A) (A) (A) (A) (A) (A) (A)
                 (A) (A) (A) (A) (A) (A) (A) (A) (A) (A) (A) (A)
                 (A) (A) (A) (A) (A) (A) (A) (A) (A) (A) (A) (A)
                 (A) (A) (A) (A) (A) (A) (A) (A) (A) (A) (A) (A)
                 (A) (A) (A) (A) (A) (A) (A) (A) (A) (A) (A) (A)
                 (A) (A) (A) (A) (A) (A) (A) (A) (A) (A) (A) (A)
                 (A) (A) (A) (A) (A) (A) (A) (A) (A) (A) (A) (A)
                 (A) (A) (A) (A) (A) (A) (A) (A) (A) (A) (A) (A)
                 (A) (A) (A) (A) (A) (A) (A) (A) (A) (A) (A) (A)
                 (A) (A) (A) (A) (A) (A) (A) (A) (A) (A) (A) (A)
                 (A) (A) (A) (A) (A) (A) (A) (A) (A) (A) (A) (A)
                 (A) (A) (A) (A) (A) (A) (A) (A) (A) (A) (A) (A)
                 (A) (A) (A) (A) (A) (A) (A) (A) (A) (A) (A) (A)
                 (A) (A) (A) (A) (A) (A) (A) (A) (A) (A) (A) (A)
     8 initial guesses have been made.
 Convergence on wavefunction:    0.000001000000000
 Iteration     1 Dimension     8 NMult     0 NNew      8
 CISAX will form     8 AO SS matrices at one time.
 Iteration     2 Dimension    12 NMult     8 NNew      4
 Iteration     3 Dimension    16 NMult    12 NNew      4
 Iteration     4 Dimension    20 NMult    16 NNew      4
 Iteration     5 Dimension    24 NMult    20 NNew      4
 Iteration     6 Dimension    28 NMult    24 NNew      4
 Iteration     7 Dimension    32 NMult    28 NNew      4
 Iteration     8 Dimension    36 NMult    32 NNew      4
 Iteration     9 Dimension    40 NMult    36 NNew      4
 Iteration    10 Dimension    44 NMult    40 NNew      4
 ***********************************************************************
 Excited states from <AA,BB:AA,BB> singles matrix:
 ***********************************************************************
 
 Ground to excited state transition densities written to RWF  633
 Ground to excited state transition electric dipole moments (Au):
       state          X           Y           Z        Dip. S.      Osc.
         1        -0.0217     -0.0128     -0.0058      0.0007      0.0000
 Ground to excited state transition velocity dipole moments (Au):
       state          X           Y           Z        Dip. S.      Osc.
         1         0.0013      0.0016      0.0031      0.0000      0.0002
 Ground to excited state transition magnetic dipole moments (Au):
       state          X           Y           Z
         1        -0.0865      0.0218      0.0329
 Ground to excited state transition velocity quadrupole moments (Au):
       state          XX          YY          ZZ          XY          XZ          YZ
         1        -0.0110      0.0014      0.0051     -0.0043     -0.0037      0.0023
 <0|del|b> * <b|rxdel|0> + <0|del|b> * <b|delr+rdel|0>
 Rotatory Strengths (R) in cgs (10**-40 erg-esu-cm/Gauss)
       state          XX          YY          ZZ    R(velocity)    E-M Angle
         1         0.7939      0.0249     -0.5429      0.0919       90.00
 1/2[<0|r|b>*<b|rxdel|0> + (<0|rxdel|b>*<b|r|0>)*]
 Rotatory Strengths (R) in cgs (10**-40 erg-esu-cm/Gauss)
       state          XX          YY          ZZ     R(length)
         1        -1.3254      0.1976      0.1358     -0.3307
  1/2[<0|del|b>*<b|r|0> + (<0|r|b>*<b|del|0>)*] (Au)
       state          X           Y           Z        Dip. S.   Osc.(frdel)
         1         0.0000      0.0000      0.0000      0.0001      0.0000

 Excitation energies and oscillator strengths:
 
 Excited State   1:      Singlet-A      1.5868 eV  781.36 nm  f=0.0000  <S**2>=0.000
      58 -> 60        -0.11330
      59 -> 60         0.68359
 This state for optimization and/or second-order correction.
 Total Energy, E(TD-HF/TD-KS) =  -746.535126270    
 Copying the excited state density for this state as the 1-particle RhoCI density.
 SavETr:  write IOETrn=   770 NScale= 10 NData=  16 NLR=1 NState=    1 LETran=      28.
          IDoAtm=1111111111111111111111111111111
 NEqPCM:  Using equilibrium solvation (IEInf=0, Eps=   8.9300, EpsInf=   2.0283)
          Differentiating once with respect to electric field.
                with respect to dipole field.
          Differentiating once with respect to nuclear coordinates.
          There are     1 degrees of freedom in the 1st order CPHF.  IDoFFX=0 NUNeed=     1.
 LinEq1:  Iter=  0 NonCon=     1 RMS=5.93D-03 Max=1.55D-01 NDo=     1
 AX will form     1 AO Fock derivatives at one time.
 LinEq1:  Iter=  1 NonCon=     1 RMS=1.93D-03 Max=5.55D-02 NDo=     1
 LinEq1:  Iter=  2 NonCon=     1 RMS=1.57D-03 Max=1.03D-01 NDo=     1
 LinEq1:  Iter=  3 NonCon=     1 RMS=6.17D-04 Max=3.30D-02 NDo=     1
 LinEq1:  Iter=  4 NonCon=     1 RMS=2.92D-04 Max=9.66D-03 NDo=     1
 LinEq1:  Iter=  5 NonCon=     1 RMS=1.29D-04 Max=3.14D-03 NDo=     1
 LinEq1:  Iter=  6 NonCon=     1 RMS=7.34D-05 Max=2.54D-03 NDo=     1
 LinEq1:  Iter=  7 NonCon=     1 RMS=3.14D-05 Max=1.83D-03 NDo=     1
 LinEq1:  Iter=  8 NonCon=     1 RMS=1.60D-05 Max=1.17D-03 NDo=     1
 LinEq1:  Iter=  9 NonCon=     1 RMS=8.79D-06 Max=6.44D-04 NDo=     1
 LinEq1:  Iter= 10 NonCon=     1 RMS=3.81D-06 Max=1.99D-04 NDo=     1
 LinEq1:  Iter= 11 NonCon=     1 RMS=2.10D-06 Max=1.02D-04 NDo=     1
 LinEq1:  Iter= 12 NonCon=     1 RMS=1.00D-06 Max=3.00D-05 NDo=     1
 LinEq1:  Iter= 13 NonCon=     1 RMS=6.40D-07 Max=3.85D-05 NDo=     1
 LinEq1:  Iter= 14 NonCon=     1 RMS=2.56D-07 Max=7.70D-06 NDo=     1
 LinEq1:  Iter= 15 NonCon=     1 RMS=1.38D-07 Max=6.07D-06 NDo=     1
 LinEq1:  Iter= 16 NonCon=     1 RMS=6.17D-08 Max=2.68D-06 NDo=     1
 LinEq1:  Iter= 17 NonCon=     1 RMS=3.03D-08 Max=7.87D-07 NDo=     1
 LinEq1:  Iter= 18 NonCon=     1 RMS=1.37D-08 Max=6.37D-07 NDo=     1
 LinEq1:  Iter= 19 NonCon=     1 RMS=4.61D-09 Max=2.24D-07 NDo=     1
 LinEq1:  Iter= 20 NonCon=     1 RMS=2.55D-09 Max=1.22D-07 NDo=     1
 LinEq1:  Iter= 21 NonCon=     1 RMS=1.05D-09 Max=5.41D-08 NDo=     1
 LinEq1:  Iter= 22 NonCon=     1 RMS=5.20D-10 Max=1.74D-08 NDo=     1
 LinEq1:  Iter= 23 NonCon=     1 RMS=2.33D-10 Max=8.57D-09 NDo=     1
 LinEq1:  Iter= 24 NonCon=     1 RMS=8.39D-11 Max=2.81D-09 NDo=     1
 LinEq1:  Iter= 25 NonCon=     1 RMS=4.54D-11 Max=1.40D-09 NDo=     1
 LinEq1:  Iter= 26 NonCon=     0 RMS=1.67D-11 Max=5.14D-10 NDo=     1
 Linear equations converged to 1.000D-10 1.000D-09 after    26 iterations.
 End of Minotr F.D. properties file   721 does not exist.
 End of Minotr F.D. properties file   722 does not exist.
 End of Minotr F.D. properties file   788 does not exist.

 **********************************************************************

            Population analysis using the SCF density.

 **********************************************************************

 Orbital symmetries:
       Occupied  (A) (A) (A) (A) (A) (A) (A) (A) (A) (A) (A) (A)
                 (A) (A) (A) (A) (A) (A) (A) (A) (A) (A) (A) (A)
                 (A) (A) (A) (A) (A) (A) (A) (A) (A) (A) (A) (A)
                 (A) (A) (A) (A) (A) (A) (A) (A) (A) (A) (A) (A)
                 (A) (A) (A) (A) (A) (A) (A) (A) (A) (A) (A)
       Virtual   (A) (A) (A) (A) (A) (A) (A) (A) (A) (A) (A) (A)
                 (A) (A) (A) (A) (A) (A) (A) (A) (A) (A) (A) (A)
                 (A) (A) (A) (A) (A) (A) (A) (A) (A) (A) (A) (A)
                 (A) (A) (A) (A) (A) (A) (A) (A) (A) (A) (A) (A)
                 (A) (A) (A) (A) (A) (A) (A) (A) (A) (A) (A) (A)
                 (A) (A) (A) (A) (A) (A) (A) (A) (A) (A) (A) (A)
                 (A) (A) (A) (A) (A) (A) (A) (A) (A) (A) (A) (A)
                 (A) (A) (A) (A) (A) (A) (A) (A) (A) (A) (A) (A)
                 (A) (A) (A) (A) (A) (A) (A) (A) (A) (A) (A) (A)
                 (A) (A) (A) (A) (A) (A) (A) (A) (A) (A) (A) (A)
                 (A) (A) (A) (A) (A) (A) (A) (A) (A) (A) (A) (A)
                 (A) (A) (A) (A) (A) (A) (A) (A) (A) (A) (A) (A)
                 (A) (A) (A) (A) (A) (A) (A) (A) (A) (A) (A) (A)
                 (A) (A) (A) (A) (A) (A) (A) (A) (A) (A) (A) (A)
                 (A) (A) (A) (A) (A) (A) (A) (A) (A) (A) (A) (A)
                 (A) (A) (A) (A) (A) (A) (A) (A) (A) (A) (A) (A)
                 (A) (A) (A) (A) (A) (A) (A) (A) (A) (A) (A) (A)
                 (A) (A) (A) (A) (A) (A) (A) (A) (A) (A) (A) (A)
                 (A) (A) (A) (A) (A) (A) (A) (A) (A) (A) (A) (A)
                 (A) (A) (A) (A) (A) (A) (A) (A) (A) (A) (A) (A)
                 (A) (A) (A) (A) (A) (A) (A) (A) (A) (A) (A) (A)
                 (A) (A) (A) (A) (A) (A) (A) (A) (A) (A) (A) (A)
                 (A) (A) (A) (A) (A) (A) (A) (A) (A) (A) (A) (A)
                 (A) (A) (A) (A) (A) (A) (A) (A) (A) (A) (A) (A)
                 (A) (A) (A) (A) (A) (A) (A) (A) (A) (A) (A) (A)
                 (A) (A) (A) (A) (A) (A) (A) (A) (A) (A) (A) (A)
                 (A) (A) (A) (A) (A) (A) (A) (A) (A) (A) (A) (A)
                 (A) (A) (A) (A) (A) (A) (A) (A) (A) (A) (A) (A)
                 (A) (A) (A) (A) (A) (A) (A) (A) (A) (A) (A) (A)
                 (A) (A) (A) (A) (A) (A) (A) (A) (A) (A) (A) (A)
                 (A) (A) (A) (A) (A) (A) (A) (A) (A) (A) (A) (A)
                 (A) (A) (A) (A) (A) (A) (A) (A) (A) (A) (A) (A)
                 (A) (A) (A) (A) (A) (A) (A) (A) (A) (A) (A) (A)
 The electronic state is 1-A.
 Alpha  occ. eigenvalues --  -19.30632 -19.27396 -19.16760 -14.53561 -10.42436
 Alpha  occ. eigenvalues --  -10.40235 -10.34041 -10.33902 -10.33791 -10.32884
 Alpha  occ. eigenvalues --  -10.32770 -10.32094 -10.28985 -10.27281 -10.26126
 Alpha  occ. eigenvalues --  -10.24932  -1.21336  -1.17007  -1.11444  -1.08350
 Alpha  occ. eigenvalues --   -0.94640  -0.92801  -0.87169  -0.85996  -0.83723
 Alpha  occ. eigenvalues --   -0.80219  -0.78987  -0.73824  -0.69456  -0.68718
 Alpha  occ. eigenvalues --   -0.66326  -0.64056  -0.63755  -0.60896  -0.59981
 Alpha  occ. eigenvalues --   -0.59567  -0.58366  -0.57046  -0.56051  -0.55514
 Alpha  occ. eigenvalues --   -0.51629  -0.51509  -0.51350  -0.50715  -0.50419
 Alpha  occ. eigenvalues --   -0.49194  -0.47827  -0.47544  -0.47154  -0.45448
 Alpha  occ. eigenvalues --   -0.44412  -0.42854  -0.41763  -0.40468  -0.37993
 Alpha  occ. eigenvalues --   -0.35791  -0.30437  -0.29795  -0.24921
 Alpha virt. eigenvalues --   -0.05783   0.03645   0.04586   0.05337   0.05648
 Alpha virt. eigenvalues --    0.05746   0.06523   0.06730   0.07308   0.07420
 Alpha virt. eigenvalues --    0.08282   0.08410   0.08549   0.09062   0.09444
 Alpha virt. eigenvalues --    0.10024   0.10242   0.10563   0.11141   0.11864
 Alpha virt. eigenvalues --    0.12726   0.12893   0.13454   0.13630   0.14315
 Alpha virt. eigenvalues --    0.14782   0.14877   0.15314   0.15972   0.16215
 Alpha virt. eigenvalues --    0.16541   0.17033   0.17572   0.17782   0.18051
 Alpha virt. eigenvalues --    0.18357   0.18714   0.18841   0.19299   0.19389
 Alpha virt. eigenvalues --    0.19616   0.19732   0.20141   0.20217   0.20931
 Alpha virt. eigenvalues --    0.21496   0.21574   0.21860   0.22498   0.22963
 Alpha virt. eigenvalues --    0.23302   0.23693   0.23856   0.24257   0.24385
 Alpha virt. eigenvalues --    0.24718   0.24899   0.25692   0.25873   0.27193
 Alpha virt. eigenvalues --    0.27686   0.27933   0.28092   0.28415   0.28759
 Alpha virt. eigenvalues --    0.29182   0.30018   0.30020   0.30595   0.31070
 Alpha virt. eigenvalues --    0.31112   0.31403   0.32151   0.32295   0.32938
 Alpha virt. eigenvalues --    0.33670   0.34062   0.34291   0.34819   0.35191
 Alpha virt. eigenvalues --    0.35341   0.35842   0.36273   0.36682   0.37081
 Alpha virt. eigenvalues --    0.37832   0.38338   0.38848   0.39175   0.39607
 Alpha virt. eigenvalues --    0.39835   0.40165   0.41047   0.41551   0.41614
 Alpha virt. eigenvalues --    0.42304   0.42908   0.43174   0.44127   0.44770
 Alpha virt. eigenvalues --    0.45469   0.46129   0.47232   0.47537   0.47851
 Alpha virt. eigenvalues --    0.48836   0.49424   0.51136   0.51860   0.52827
 Alpha virt. eigenvalues --    0.53184   0.53588   0.55943   0.58184   0.58673
 Alpha virt. eigenvalues --    0.59396   0.60680   0.61456   0.62910   0.64920
 Alpha virt. eigenvalues --    0.65342   0.65966   0.66278   0.67349   0.68130
 Alpha virt. eigenvalues --    0.68475   0.69346   0.70066   0.70727   0.71444
 Alpha virt. eigenvalues --    0.71800   0.72330   0.72988   0.73735   0.73921
 Alpha virt. eigenvalues --    0.74149   0.74859   0.75266   0.75822   0.76228
 Alpha virt. eigenvalues --    0.77081   0.77757   0.78216   0.78552   0.79153
 Alpha virt. eigenvalues --    0.80782   0.81204   0.82395   0.82703   0.83880
 Alpha virt. eigenvalues --    0.84809   0.85081   0.85846   0.86593   0.87673
 Alpha virt. eigenvalues --    0.89167   0.91047   0.91681   0.92210   0.94070
 Alpha virt. eigenvalues --    0.95912   0.96676   0.96784   0.98286   0.98922
 Alpha virt. eigenvalues --    0.99756   0.99886   1.02695   1.03946   1.04804
 Alpha virt. eigenvalues --    1.05768   1.06941   1.07353   1.09161   1.09960
 Alpha virt. eigenvalues --    1.10816   1.12131   1.12521   1.13046   1.14533
 Alpha virt. eigenvalues --    1.14811   1.15270   1.18565   1.20016   1.21065
 Alpha virt. eigenvalues --    1.21311   1.21982   1.25922   1.26390   1.27855
 Alpha virt. eigenvalues --    1.30886   1.31448   1.32755   1.35593   1.36326
 Alpha virt. eigenvalues --    1.36848   1.38062   1.38482   1.40623   1.40743
 Alpha virt. eigenvalues --    1.44186   1.48382   1.49463   1.51549   1.52141
 Alpha virt. eigenvalues --    1.53083   1.53380   1.54229   1.55394   1.56656
 Alpha virt. eigenvalues --    1.58404   1.59613   1.60279   1.61408   1.63404
 Alpha virt. eigenvalues --    1.63746   1.64187   1.65553   1.66617   1.67162
 Alpha virt. eigenvalues --    1.67994   1.69190   1.70009   1.70070   1.70720
 Alpha virt. eigenvalues --    1.71586   1.74194   1.75539   1.75839   1.77589
 Alpha virt. eigenvalues --    1.78106   1.79078   1.79593   1.79992   1.80735
 Alpha virt. eigenvalues --    1.81833   1.83344   1.84475   1.86196   1.87490
 Alpha virt. eigenvalues --    1.88388   1.89228   1.90265   1.90803   1.93580
 Alpha virt. eigenvalues --    1.94589   1.96476   1.98666   1.99111   2.00999
 Alpha virt. eigenvalues --    2.03570   2.04916   2.05552   2.08373   2.09466
 Alpha virt. eigenvalues --    2.10506   2.11265   2.11323   2.13461   2.14564
 Alpha virt. eigenvalues --    2.15293   2.17322   2.18939   2.19271   2.19800
 Alpha virt. eigenvalues --    2.21151   2.22148   2.23547   2.24205   2.26626
 Alpha virt. eigenvalues --    2.28773   2.29258   2.31145   2.34110   2.35807
 Alpha virt. eigenvalues --    2.39925   2.41245   2.43362   2.47603   2.49240
 Alpha virt. eigenvalues --    2.51303   2.53562   2.54599   2.56421   2.57302
 Alpha virt. eigenvalues --    2.58458   2.59004   2.59101   2.60523   2.62194
 Alpha virt. eigenvalues --    2.62892   2.65883   2.66222   2.68690   2.70443
 Alpha virt. eigenvalues --    2.71258   2.72192   2.74385   2.76301   2.77039
 Alpha virt. eigenvalues --    2.79406   2.79992   2.81654   2.83373   2.83974
 Alpha virt. eigenvalues --    2.84801   2.86159   2.87859   2.88541   2.90195
 Alpha virt. eigenvalues --    2.91445   2.92440   2.94035   2.95871   2.96839
 Alpha virt. eigenvalues --    2.98990   3.00326   3.01409   3.03261   3.03926
 Alpha virt. eigenvalues --    3.05529   3.07591   3.08898   3.10574   3.11654
 Alpha virt. eigenvalues --    3.16090   3.19760   3.21123   3.21834   3.23013
 Alpha virt. eigenvalues --    3.25018   3.25977   3.28679   3.34415   3.35772
 Alpha virt. eigenvalues --    3.37113   3.38971   3.42540   3.47335   3.48311
 Alpha virt. eigenvalues --    3.49077   3.52930   3.57189   3.60834   3.63847
 Alpha virt. eigenvalues --    3.64355   3.66703   3.71237   3.76842   3.77503
 Alpha virt. eigenvalues --    3.80825   3.83462   3.86099   3.87544   3.88489
 Alpha virt. eigenvalues --    3.90466   3.90918   3.94432   3.98199   4.08236
 Alpha virt. eigenvalues --    4.13661   4.18162   4.21250   4.27472   4.31148
 Alpha virt. eigenvalues --    4.32584   4.37392   4.48875   4.94373   4.95497
 Alpha virt. eigenvalues --    5.09117   5.15726   5.23599   5.26375   5.41406
 Alpha virt. eigenvalues --    5.51821   5.59654   5.72615   5.89943   5.95868
 Alpha virt. eigenvalues --   23.74588  23.87121  24.02658  24.03612  24.05519
 Alpha virt. eigenvalues --   24.06206  24.06933  24.10262  24.18438  24.24868
 Alpha virt. eigenvalues --   24.28006  24.33387  35.62641  50.05058  50.11467
 Alpha virt. eigenvalues --   50.23988
          Condensed to atoms (all electrons):
               1          2          3          4          5          6
     1  C    5.437318   0.373739   0.419756  -0.143925   0.016287   0.275866
     2  H    0.373739   0.460581  -0.019045   0.000984  -0.002861  -0.038516
     3  H    0.419756  -0.019045   0.468906  -0.019190   0.005084  -0.039864
     4  C   -0.143925   0.000984  -0.019190   5.338204   0.415394   0.256231
     5  H    0.016287  -0.002861   0.005084   0.415394   0.502122  -0.016359
     6  N    0.275866  -0.038516  -0.039864   0.256231  -0.016359   6.587242
     7  H    0.387065  -0.017921  -0.040198   0.017402  -0.000722  -0.027747
     8  H    0.001436   0.002712  -0.001476   0.387239  -0.039229  -0.068199
     9  H   -0.026125   0.002577   0.001881   0.397022  -0.050549  -0.043778
    10  C   -0.289646   0.032455   0.018006  -0.224362  -0.084271   0.133173
    11  H    0.014605   0.000305  -0.001650  -0.017501   0.006599  -0.043373
    12  C    0.293261  -0.005916  -0.018899   0.019592   0.032543  -0.083975
    13  C   -0.189547  -0.002401   0.002583  -0.044060  -0.006008  -0.037352
    14  H    0.029583   0.000592  -0.005339   0.004638   0.002380  -0.023044
    15  O   -0.004024   0.000021   0.000487  -0.006361   0.000052  -0.002395
    16  C   -0.117083  -0.002254  -0.001006  -0.002361  -0.002272  -0.019061
    17  C   -0.028410   0.000364   0.001887  -0.016979   0.000599  -0.014504
    18  C    0.037146   0.000489  -0.003338   0.024618  -0.001629   0.019031
    19  O    0.001683   0.000248  -0.000241  -0.000160  -0.000007   0.000736
    20  C    0.003133  -0.000336  -0.001478   0.000060   0.000159  -0.000216
    21  C    0.006168   0.000789  -0.000759   0.002164  -0.000705   0.005305
    22  H    0.000301   0.000207  -0.000884  -0.000439  -0.000250   0.000463
    23  H    0.000924  -0.000018  -0.000027   0.002151   0.000096   0.000718
    24  H    0.000055   0.000007  -0.000030  -0.000003   0.000000   0.000048
    25  C   -0.000447   0.000129   0.000083  -0.000142  -0.000100  -0.000096
    26  H   -0.000292  -0.000026   0.000045   0.000055   0.000013  -0.000033
    27  O   -0.000002   0.000000   0.000003   0.000000   0.000000  -0.000001
    28  C    0.000023   0.000006  -0.000018  -0.000001  -0.000002   0.000012
    29  H    0.000001   0.000000   0.000002  -0.000001   0.000000   0.000001
    30  H    0.000003   0.000000  -0.000002   0.000000   0.000000   0.000001
    31  H   -0.000008  -0.000002   0.000000   0.000000   0.000000  -0.000004
               7          8          9         10         11         12
     1  C    0.387065   0.001436  -0.026125  -0.289646   0.014605   0.293261
     2  H   -0.017921   0.002712   0.002577   0.032455   0.000305  -0.005916
     3  H   -0.040198  -0.001476   0.001881   0.018006  -0.001650  -0.018899
     4  C    0.017402   0.387239   0.397022  -0.224362  -0.017501   0.019592
     5  H   -0.000722  -0.039229  -0.050549  -0.084271   0.006599   0.032543
     6  N   -0.027747  -0.068199  -0.043778   0.133173  -0.043373  -0.083975
     7  H    0.499993  -0.001902   0.000163   0.042846   0.000361  -0.065414
     8  H   -0.001902   0.506542  -0.012424   0.061281  -0.007898  -0.030804
     9  H    0.000163  -0.012424   0.513500   0.016216  -0.002076   0.014635
    10  C    0.042846   0.061281   0.016216  10.184763   0.395702  -4.417249
    11  H    0.000361  -0.007898  -0.002076   0.395702   0.419778   0.072355
    12  C   -0.065414  -0.030804   0.014635  -4.417249   0.072355  15.052591
    13  C   -0.004971   0.016448  -0.002770  -0.190782  -0.078084  -1.662655
    14  H   -0.008022  -0.002524  -0.001003  -0.259428   0.003021   0.762665
    15  O    0.000314   0.001158  -0.000173   0.085105   0.013118  -0.622437
    16  C    0.001532   0.004698  -0.000405   0.708996  -0.026783  -4.066778
    17  C    0.006551  -0.000995  -0.001496   0.823552   0.010598  -1.847968
    18  C   -0.001914   0.002129   0.002104  -0.795654  -0.018561   2.408947
    19  O   -0.000268  -0.000123  -0.000008  -0.042109   0.002965   0.036422
    20  C   -0.003577  -0.000621   0.000026  -0.276551   0.004735   0.443824
    21  C    0.006012   0.000875   0.000141   0.267148  -0.007863  -0.031071
    22  H    0.000678   0.000289  -0.000015   0.013738  -0.000697  -0.076563
    23  H    0.000325   0.000149  -0.000188  -0.005683  -0.006004   0.023785
    24  H   -0.000023  -0.000002   0.000000  -0.003853   0.000052  -0.000870
    25  C    0.002030   0.000140  -0.000015   0.122843  -0.002202  -0.190972
    26  H   -0.000059  -0.000013   0.000003  -0.003729   0.000089   0.003285
    27  O    0.000001   0.000000   0.000000   0.000594   0.000012  -0.000554
    28  C    0.000068   0.000001   0.000000   0.002262   0.000001  -0.006758
    29  H   -0.000001   0.000000   0.000000   0.000359  -0.000001  -0.000282
    30  H    0.000004   0.000000   0.000000   0.000046  -0.000002  -0.000082
    31  H    0.000004   0.000000   0.000000  -0.000193  -0.000002   0.000051
              13         14         15         16         17         18
     1  C   -0.189547   0.029583  -0.004024  -0.117083  -0.028410   0.037146
     2  H   -0.002401   0.000592   0.000021  -0.002254   0.000364   0.000489
     3  H    0.002583  -0.005339   0.000487  -0.001006   0.001887  -0.003338
     4  C   -0.044060   0.004638  -0.006361  -0.002361  -0.016979   0.024618
     5  H   -0.006008   0.002380   0.000052  -0.002272   0.000599  -0.001629
     6  N   -0.037352  -0.023044  -0.002395  -0.019061  -0.014504   0.019031
     7  H   -0.004971  -0.008022   0.000314   0.001532   0.006551  -0.001914
     8  H    0.016448  -0.002524   0.001158   0.004698  -0.000995   0.002129
     9  H   -0.002770  -0.001003  -0.000173  -0.000405  -0.001496   0.002104
    10  C   -0.190782  -0.259428   0.085105   0.708996   0.823552  -0.795654
    11  H   -0.078084   0.003021   0.013118  -0.026783   0.010598  -0.018561
    12  C   -1.662655   0.762665  -0.622437  -4.066778  -1.847968   2.408947
    13  C   10.569969  -0.075796   0.595500  -0.288372   0.777903  -2.122468
    14  H   -0.075796   0.481999  -0.011825  -0.072224  -0.185226   0.140561
    15  O    0.595500  -0.011825   7.829437   0.300150  -0.077814  -0.091840
    16  C   -0.288372  -0.072224   0.300150  16.633476  -0.540489  -2.308219
    17  C    0.777903  -0.185226  -0.077814  -0.540489  15.609762  -8.062874
    18  C   -2.122468   0.140561  -0.091840  -2.308219  -8.062874  17.894206
    19  O   -0.004619   0.006959  -0.018313   0.040462   0.248736   0.097375
    20  C   -0.651785   0.088618  -0.005257  -2.418547  -3.283393   4.212487
    21  C   -0.219551  -0.088918  -0.053703  -1.277113   1.357729  -1.847683
    22  H   -0.059581  -0.007162  -0.001700   0.008465   0.088848   0.209299
    23  H   -0.016612   0.000500   0.241790   0.024891  -0.097868   0.095729
    24  H   -0.036412   0.000560  -0.000076  -0.030338  -0.106371   0.073506
    25  C    0.075745  -0.038862  -0.007618  -1.373993   1.491128  -3.340808
    26  H    0.020353   0.001526   0.000209   0.049404  -0.029978   0.051995
    27  O    0.003172  -0.000318  -0.000067   0.014149   0.045518  -0.011398
    28  C   -0.019451  -0.001261  -0.000375  -0.100648   0.099708  -0.212122
    29  H   -0.002896  -0.000089  -0.000008   0.003717   0.009654  -0.012533
    30  H   -0.001530  -0.000073  -0.000008  -0.008664   0.002628  -0.011066
    31  H    0.003113  -0.000090   0.000023   0.006387  -0.003094  -0.003321
              19         20         21         22         23         24
     1  C    0.001683   0.003133   0.006168   0.000301   0.000924   0.000055
     2  H    0.000248  -0.000336   0.000789   0.000207  -0.000018   0.000007
     3  H   -0.000241  -0.001478  -0.000759  -0.000884  -0.000027  -0.000030
     4  C   -0.000160   0.000060   0.002164  -0.000439   0.002151  -0.000003
     5  H   -0.000007   0.000159  -0.000705  -0.000250   0.000096   0.000000
     6  N    0.000736  -0.000216   0.005305   0.000463   0.000718   0.000048
     7  H   -0.000268  -0.003577   0.006012   0.000678   0.000325  -0.000023
     8  H   -0.000123  -0.000621   0.000875   0.000289   0.000149  -0.000002
     9  H   -0.000008   0.000026   0.000141  -0.000015  -0.000188   0.000000
    10  C   -0.042109  -0.276551   0.267148   0.013738  -0.005683  -0.003853
    11  H    0.002965   0.004735  -0.007863  -0.000697  -0.006004   0.000052
    12  C    0.036422   0.443824  -0.031071  -0.076563   0.023785  -0.000870
    13  C   -0.004619  -0.651785  -0.219551  -0.059581  -0.016612  -0.036412
    14  H    0.006959   0.088618  -0.088918  -0.007162   0.000500   0.000560
    15  O   -0.018313  -0.005257  -0.053703  -0.001700   0.241790  -0.000076
    16  C    0.040462  -2.418547  -1.277113   0.008465   0.024891  -0.030338
    17  C    0.248736  -3.283393   1.357729   0.088848  -0.097868  -0.106371
    18  C    0.097375   4.212487  -1.847683   0.209299   0.095729   0.073506
    19  O    8.530013  -0.291277  -0.053564  -0.001308   0.003492  -0.012016
    20  C   -0.291277  15.682382  -4.631338   0.014443  -0.002417   0.679867
    21  C   -0.053564  -4.631338  11.082957   0.012263   0.009573  -0.102221
    22  H   -0.001308   0.014443   0.012263   0.496632   0.000428   0.002171
    23  H    0.003492  -0.002417   0.009573   0.000428   0.388197  -0.000188
    24  H   -0.012016   0.679867  -0.102221   0.002171  -0.000188   0.486611
    25  C    0.031415  -2.517541   1.042980   0.073144   0.000543  -0.157117
    26  H   -0.000025  -0.014840   0.442633  -0.015963  -0.000030  -0.001408
    27  O   -0.002063  -0.618291   0.237399  -0.001717  -0.000033  -0.019547
    28  C   -0.001093   0.044782  -0.187922   0.008556  -0.000001   0.003697
    29  H    0.000037  -0.027579   0.030090   0.000830   0.000046  -0.000543
    30  H   -0.000072   0.011355  -0.003692   0.000600   0.000003   0.000854
    31  H    0.000064   0.000727   0.005360  -0.000014  -0.000027  -0.000364
              25         26         27         28         29         30
     1  C   -0.000447  -0.000292  -0.000002   0.000023   0.000001   0.000003
     2  H    0.000129  -0.000026   0.000000   0.000006   0.000000   0.000000
     3  H    0.000083   0.000045   0.000003  -0.000018   0.000002  -0.000002
     4  C   -0.000142   0.000055   0.000000  -0.000001  -0.000001   0.000000
     5  H   -0.000100   0.000013   0.000000  -0.000002   0.000000   0.000000
     6  N   -0.000096  -0.000033  -0.000001   0.000012   0.000001   0.000001
     7  H    0.002030  -0.000059   0.000001   0.000068  -0.000001   0.000004
     8  H    0.000140  -0.000013   0.000000   0.000001   0.000000   0.000000
     9  H   -0.000015   0.000003   0.000000   0.000000   0.000000   0.000000
    10  C    0.122843  -0.003729   0.000594   0.002262   0.000359   0.000046
    11  H   -0.002202   0.000089   0.000012   0.000001  -0.000001  -0.000002
    12  C   -0.190972   0.003285  -0.000554  -0.006758  -0.000282  -0.000082
    13  C    0.075745   0.020353   0.003172  -0.019451  -0.002896  -0.001530
    14  H   -0.038862   0.001526  -0.000318  -0.001261  -0.000089  -0.000073
    15  O   -0.007618   0.000209  -0.000067  -0.000375  -0.000008  -0.000008
    16  C   -1.373993   0.049404   0.014149  -0.100648   0.003717  -0.008664
    17  C    1.491128  -0.029978   0.045518   0.099708   0.009654   0.002628
    18  C   -3.340808   0.051995  -0.011398  -0.212122  -0.012533  -0.011066
    19  O    0.031415  -0.000025  -0.002063  -0.001093   0.000037  -0.000072
    20  C   -2.517541  -0.014840  -0.618291   0.044782  -0.027579   0.011355
    21  C    1.042980   0.442633   0.237399  -0.187922   0.030090  -0.003692
    22  H    0.073144  -0.015963  -0.001717   0.008556   0.000830   0.000600
    23  H    0.000543  -0.000030  -0.000033  -0.000001   0.000046   0.000003
    24  H   -0.157117  -0.001408  -0.019547   0.003697  -0.000543   0.000854
    25  C   10.963945  -0.161591   0.217466   0.119489  -0.027339   0.044212
    26  H   -0.161591   0.493414  -0.014836  -0.014090  -0.007829   0.001562
    27  O    0.217466  -0.014836   8.264166   0.198662  -0.035386  -0.063495
    28  C    0.119489  -0.014090   0.198662   5.247763   0.412237   0.397265
    29  H   -0.027339  -0.007829  -0.035386   0.412237   0.562119  -0.020389
    30  H    0.044212   0.001562  -0.063495   0.397265  -0.020389   0.460478
    31  H   -0.022379  -0.006498  -0.036895   0.401086  -0.059601  -0.022136
              31
     1  C   -0.000008
     2  H   -0.000002
     3  H    0.000000
     4  C    0.000000
     5  H    0.000000
     6  N   -0.000004
     7  H    0.000004
     8  H    0.000000
     9  H    0.000000
    10  C   -0.000193
    11  H   -0.000002
    12  C    0.000051
    13  C    0.003113
    14  H   -0.000090
    15  O    0.000023
    16  C    0.006387
    17  C   -0.003094
    18  C   -0.003321
    19  O    0.000064
    20  C    0.000727
    21  C    0.005360
    22  H   -0.000014
    23  H   -0.000027
    24  H   -0.000364
    25  C   -0.022379
    26  H   -0.006498
    27  O   -0.036895
    28  C    0.401086
    29  H   -0.059601
    30  H   -0.022136
    31  H    0.562799
 Mulliken charges:
               1
     1  C   -0.498845
     2  H    0.213091
     3  H    0.234723
     4  C   -0.390267
     5  H    0.223638
     6  N    0.179692
     7  H    0.207390
     8  H    0.181115
     9  H    0.192758
    10  C   -0.315576
    11  H    0.268405
    12  C   -0.034708
    13  C   -0.347081
    14  H    0.257604
    15  O   -0.163370
    16  C    0.860283
    17  C   -0.277706
    18  C   -0.424191
    19  O   -0.573339
    20  C   -0.441553
    21  C   -0.003483
    22  H    0.234938
    23  H    0.335758
    24  H    0.223955
    25  C   -0.344068
    26  H    0.206656
    27  O   -0.176537
    28  C   -0.391877
    29  H    0.175382
    30  H    0.212200
    31  H    0.175015
 Sum of Mulliken charges =   0.00000
 Mulliken charges with hydrogens summed into heavy atoms:
               1
     1  C    0.156359
     4  C    0.207243
     6  N    0.179692
    10  C   -0.047171
    12  C    0.222897
    13  C   -0.347081
    15  O    0.172388
    16  C    0.860283
    17  C   -0.277706
    18  C   -0.189253
    19  O   -0.573339
    20  C   -0.217598
    21  C    0.203172
    25  C   -0.344068
    27  O   -0.176537
    28  C    0.170720
 Electronic spatial extent (au):  <R**2>=           5639.9757
 Charge=              0.0000 electrons
 Dipole moment (field-independent basis, Debye):
    X=             16.0008    Y=             -8.0451    Z=              3.3276  Tot=             18.2159
 Quadrupole moment (field-independent basis, Debye-Ang):
   XX=            -38.0806   YY=            -98.9898   ZZ=           -101.7942
   XY=              3.1707   XZ=             -7.8248   YZ=              7.7459
 Traceless Quadrupole moment (field-independent basis, Debye-Ang):
   XX=             41.5410   YY=            -19.3683   ZZ=            -22.1727
   XY=              3.1707   XZ=             -7.8248   YZ=              7.7459
 Octapole moment (field-independent basis, Debye-Ang**2):
  XXX=            275.1226  YYY=            -28.0376  ZZZ=              0.4448  XYY=             28.3918
  XXY=            -82.3165  XXZ=             20.3495  XZZ=             23.5881  YZZ=            -23.4593
  YYZ=             16.9932  XYZ=             13.2298
 Hexadecapole moment (field-independent basis, Debye-Ang**3):
 XXXX=          -4355.4532 YYYY=           -795.9983 ZZZZ=           -525.7204 XXXY=             27.0662
 XXXZ=            -87.9020 YYYX=             36.1738 YYYZ=             64.6030 ZZZX=            -16.4734
 ZZZY=             17.2948 XXYY=          -1020.5686 XXZZ=          -1073.1842 YYZZ=           -236.3689
 XXYZ=             34.7493 YYXZ=            -24.1353 ZZXY=            -16.7834
 N-N= 1.042598919771D+03 E-N=-3.828438235590D+03  KE= 7.436299441787D+02
 D1PCM: PCM CHGder 1st derivatives, ID1Alg=3 FixD1E=F DoIter=F DoCFld=F I1PDM=6.
 Calling FoFJK, ICntrl=  10005127 FMM=F ISym2X=0 I1Cent= 0 IOpClX= 0 NMat=1 NMatS=1 NMatT=0.
 ***** Axes restored to original set *****
 -------------------------------------------------------------------
 Center     Atomic                   Forces (Hartrees/Bohr)
 Number     Number              X              Y              Z
 -------------------------------------------------------------------
      1        6          -0.000923996    0.002434417    0.001186491
      2        1          -0.000240280   -0.000228964   -0.000293084
      3        1           0.000312247   -0.000844614    0.000448389
      4        6           0.002750671   -0.000168630   -0.002031143
      5        1          -0.000168748   -0.000542162    0.001117765
      6        7          -0.003941358   -0.002692426   -0.002443609
      7        1          -0.000065319    0.000217813    0.000071107
      8        1           0.000110632    0.000081806   -0.000023271
      9        1          -0.000380109   -0.000020467   -0.000193950
     10        6          -0.004263127    0.002908987    0.003780160
     11        1           0.000619005    0.000420782   -0.000710518
     12        6           0.011813312    0.009348836    0.005177681
     13        6          -0.017557497    0.040113129   -0.002919596
     14        1           0.000815732    0.000159444    0.001815749
     15        8          -0.005214618   -0.012182785    0.013636772
     16        6           0.015649430   -0.005441829   -0.000998742
     17        6          -0.004504874   -0.002938216    0.000670534
     18        6          -0.011500370    0.010291656   -0.002387769
     19        8           0.003185040   -0.001254614    0.001457097
     20        6          -0.000890503    0.002180405   -0.001015708
     21        6           0.010139557    0.002034029   -0.006269904
     22        1          -0.000485783    0.000277977   -0.000018796
     23        1           0.004930547   -0.037895251   -0.016020677
     24        1          -0.000311580   -0.000228812   -0.000091746
     25        6          -0.003662189   -0.005798527    0.008016660
     26        1           0.000309083   -0.000409183   -0.000269199
     27        8           0.006547162   -0.003545813    0.000750030
     28        6          -0.003054429    0.004687550   -0.003357908
     29        1           0.000037169   -0.000147126    0.000933065
     30        1           0.000221045    0.000030808   -0.000139553
     31        1          -0.000275852   -0.000848221    0.000123671
 -------------------------------------------------------------------
 Cartesian Forces:  Max     0.040113129 RMS     0.007537579

 GradGradGradGradGradGradGradGradGradGradGradGradGradGradGradGradGradGrad
 Berny optimization.
 FormGI is forming the generalized inverse of G from B-inverse, IUseBI=4.
 Internal  Forces:  Max     0.071624363 RMS     0.007373159
 Search for a local minimum.
 Step number   1 out of a maximum of  150
 All quantities printed in internal units (Hartrees-Bohrs-Radians)
 Mixed Optimization -- RFO/linear search
 Second derivative matrix not updated -- first step.
 ITU=  0
     Eigenvalues ---    0.01047   0.01052   0.01121   0.01459   0.01529
     Eigenvalues ---    0.01585   0.01659   0.01767   0.01857   0.01965
     Eigenvalues ---    0.02005   0.02022   0.02088   0.02121   0.02167
     Eigenvalues ---    0.02219   0.02250   0.02262   0.02275   0.02292
     Eigenvalues ---    0.02339   0.02410   0.07313   0.07336   0.07651
     Eigenvalues ---    0.07693   0.10039   0.10700   0.15992   0.15995
     Eigenvalues ---    0.15999   0.16000   0.16000   0.16000   0.16000
     Eigenvalues ---    0.16000   0.16000   0.16000   0.16000   0.16000
     Eigenvalues ---    0.16000   0.16000   0.16000   0.21617   0.22000
     Eigenvalues ---    0.22003   0.22347   0.22650   0.23489   0.24568
     Eigenvalues ---    0.24932   0.24952   0.24985   0.24993   0.24999
     Eigenvalues ---    0.25000   0.33511   0.33647   0.34175   0.34176
     Eigenvalues ---    0.34541   0.34579   0.34665   0.34703   0.34712
     Eigenvalues ---    0.35016   0.35551   0.35601   0.35638   0.35677
     Eigenvalues ---    0.35780   0.36276   0.38461   0.38501   0.39158
     Eigenvalues ---    0.41794   0.43646   0.45337   0.47487   0.47860
     Eigenvalues ---    0.49788   0.49889   0.50227   0.50963   0.54046
     Eigenvalues ---    0.55575   0.83999
 RFO step:  Lambda=-3.23146884D-02 EMin= 1.04693753D-02
 Linear search not attempted -- first point.
 Maximum step size (   0.300) exceeded in Quadratic search.
    -- Step size scaled by   0.775
 Iteration  1 RMS(Cart)=  0.04088662 RMS(Int)=  0.00808106
 Iteration  2 RMS(Cart)=  0.01377349 RMS(Int)=  0.00064421
 Iteration  3 RMS(Cart)=  0.00062812 RMS(Int)=  0.00004168
 Iteration  4 RMS(Cart)=  0.00000061 RMS(Int)=  0.00004168
 Variable       Old X    -DE/DX   Delta X   Delta X   Delta X     New X
                                 (Linear)    (Quad)   (Total)
    R1        2.06160  -0.00040   0.00000  -0.00082  -0.00082   2.06078
    R2        2.08163  -0.00100   0.00000  -0.00210  -0.00210   2.07952
    R3        2.72713   0.00225   0.00000   0.00412   0.00412   2.73125
    R4        2.06364   0.00004   0.00000   0.00008   0.00008   2.06372
    R5        2.07930  -0.00118   0.00000  -0.00248  -0.00248   2.07682
    R6        2.73699   0.00255   0.00000   0.00474   0.00474   2.74173
    R7        2.06222  -0.00004   0.00000  -0.00009  -0.00009   2.06213
    R8        2.06427  -0.00041   0.00000  -0.00084  -0.00084   2.06342
    R9        2.60080  -0.00372   0.00000  -0.00545  -0.00545   2.59536
   R10        2.04651   0.00029   0.00000   0.00057   0.00057   2.04708
   R11        2.59978  -0.00644   0.00000  -0.00940  -0.00940   2.59038
   R12        2.62088   0.01389   0.00000   0.02108   0.02108   2.64196
   R13        2.04710   0.00097   0.00000   0.00193   0.00193   2.04902
   R14        2.58906   0.03780   0.00000   0.05408   0.05408   2.64314
   R15        2.79445  -0.01166   0.00000  -0.02382  -0.02382   2.77063
   R16        1.81324   0.01239   0.00000   0.01633   0.01633   1.82957
   R17        2.75203   0.00327   0.00000   0.00652   0.00652   2.75855
   R18        2.61023   0.00903   0.00000   0.01368   0.01368   2.62391
   R19        2.35828   0.00311   0.00000   0.00276   0.00276   2.36104
   R20        2.71859  -0.00069   0.00000  -0.00128  -0.00128   2.71731
   R21        2.62889  -0.00867   0.00000  -0.01332  -0.01332   2.61557
   R22        2.04790  -0.00008   0.00000  -0.00016  -0.00016   2.04774
   R23        2.04589   0.00020   0.00000   0.00040   0.00040   2.04629
   R24        2.58939  -0.00221   0.00000  -0.00341  -0.00341   2.58598
   R25        2.67917   0.00721   0.00000   0.01188   0.01188   2.69105
   R26        2.04427  -0.00028   0.00000  -0.00056  -0.00056   2.04371
   R27        2.55990  -0.00368   0.00000  -0.00498  -0.00498   2.55491
   R28        2.66881   0.00541   0.00000   0.00894   0.00894   2.67775
   R29        2.07034  -0.00087   0.00000  -0.00181  -0.00181   2.06853
   R30        2.05649  -0.00026   0.00000  -0.00053  -0.00053   2.05596
   R31        2.07036  -0.00086   0.00000  -0.00179  -0.00179   2.06857
    A1        1.89317   0.00015   0.00000   0.00033   0.00033   1.89349
    A2        1.90670  -0.00028   0.00000  -0.00118  -0.00118   1.90551
    A3        1.88642   0.00002   0.00000   0.00028   0.00028   1.88671
    A4        1.96259  -0.00019   0.00000  -0.00087  -0.00087   1.96172
    A5        1.89225  -0.00011   0.00000  -0.00038  -0.00038   1.89187
    A6        1.92101   0.00042   0.00000   0.00185   0.00185   1.92286
    A7        1.96136  -0.00044   0.00000  -0.00192  -0.00192   1.95945
    A8        1.89000   0.00019   0.00000   0.00121   0.00121   1.89121
    A9        1.89507   0.00007   0.00000  -0.00039  -0.00039   1.89467
   A10        1.91165   0.00037   0.00000   0.00186   0.00186   1.91350
   A11        1.91574  -0.00018   0.00000  -0.00096  -0.00096   1.91478
   A12        1.88847   0.00001   0.00000   0.00028   0.00028   1.88875
   A13        2.02081   0.00036   0.00000   0.00135   0.00135   2.02216
   A14        2.07560  -0.00044   0.00000  -0.00107  -0.00107   2.07453
   A15        2.04557   0.00016   0.00000   0.00081   0.00081   2.04638
   A16        2.00381  -0.00064   0.00000  -0.00246  -0.00246   2.00135
   A17        2.19966   0.00018   0.00000   0.00057   0.00057   2.20023
   A18        2.07880   0.00048   0.00000   0.00208   0.00207   2.08087
   A19        2.16825  -0.00006   0.00000  -0.00020  -0.00021   2.16804
   A20        2.09610  -0.00111   0.00000  -0.00450  -0.00451   2.09159
   A21        2.01882   0.00117   0.00000   0.00466   0.00466   2.02348
   A22        2.08453   0.00914   0.00000   0.02586   0.02576   2.11030
   A23        2.15078  -0.00494   0.00000  -0.01295  -0.01307   2.13771
   A24        2.04369  -0.00405   0.00000  -0.01054  -0.01066   2.03303
   A25        1.53370   0.07162   0.00000   0.28876   0.28876   1.82245
   A26        2.07093  -0.00451   0.00000  -0.01291  -0.01291   2.05802
   A27        2.13818   0.00359   0.00000   0.00936   0.00936   2.14754
   A28        2.07378   0.00092   0.00000   0.00361   0.00360   2.07738
   A29        2.09441  -0.00153   0.00000  -0.00438  -0.00439   2.09002
   A30        2.06476  -0.00091   0.00000  -0.00191  -0.00192   2.06284
   A31        2.12363   0.00245   0.00000   0.00654   0.00653   2.13016
   A32        2.12151  -0.00176   0.00000  -0.00466  -0.00466   2.11686
   A33        2.08308   0.00144   0.00000   0.00464   0.00463   2.08771
   A34        2.07829   0.00032   0.00000   0.00010   0.00010   2.07839
   A35        2.06824   0.00049   0.00000   0.00190   0.00190   2.07014
   A36        2.10964  -0.00066   0.00000  -0.00250  -0.00250   2.10714
   A37        2.10527   0.00017   0.00000   0.00059   0.00059   2.10586
   A38        2.10359   0.00023   0.00000   0.00041   0.00041   2.10400
   A39        2.07749  -0.00046   0.00000  -0.00162  -0.00162   2.07587
   A40        2.10207   0.00024   0.00000   0.00122   0.00121   2.10328
   A41        2.09134   0.00218   0.00000   0.00518   0.00519   2.09653
   A42        2.04256   0.00008   0.00000   0.00061   0.00061   2.04317
   A43        2.14927  -0.00226   0.00000  -0.00580  -0.00580   2.14347
   A44        2.07914   0.00090   0.00000   0.00247   0.00247   2.08161
[...]
 Alpha virt. eigenvalues --    2.17333   2.18019   2.20454   2.20796   2.23572
 Alpha virt. eigenvalues --    2.23775   2.25046   2.25760   2.28812   2.30359
 Alpha virt. eigenvalues --    2.31973   2.34186   2.37060   2.39337   2.39969
 Alpha virt. eigenvalues --    2.42657   2.46405   2.47435   2.47912   2.51052
 Alpha virt. eigenvalues --    2.54082   2.55546   2.56067   2.56990   2.58200
 Alpha virt. eigenvalues --    2.59302   2.59754   2.61472   2.63417   2.64076
 Alpha virt. eigenvalues --    2.64707   2.66086   2.68837   2.70976   2.71563
 Alpha virt. eigenvalues --    2.71982   2.73709   2.75942   2.77217   2.77617
 Alpha virt. eigenvalues --    2.80706   2.81949   2.82261   2.83827   2.84756
 Alpha virt. eigenvalues --    2.85596   2.85795   2.88349   2.88625   2.90205
 Alpha virt. eigenvalues --    2.93126   2.93867   2.94137   2.96028   2.97095
 Alpha virt. eigenvalues --    2.98464   3.00127   3.00623   3.04710   3.06852
 Alpha virt. eigenvalues --    3.09757   3.13081   3.14457   3.17045   3.17685
 Alpha virt. eigenvalues --    3.18166   3.19999   3.20295   3.23409   3.25159
 Alpha virt. eigenvalues --    3.27097   3.30660   3.32097   3.33806   3.34949
 Alpha virt. eigenvalues --    3.39364   3.41585   3.42423   3.50061   3.52405
 Alpha virt. eigenvalues --    3.53671   3.58639   3.60626   3.66151   3.68416
 Alpha virt. eigenvalues --    3.71453   3.73875   3.75729   3.80022   3.81077
 Alpha virt. eigenvalues --    3.82655   3.86021   3.87770   3.88675   3.93901
 Alpha virt. eigenvalues --    3.94613   3.95597   4.01722   4.08403   4.11142
 Alpha virt. eigenvalues --    4.18040   4.20388   4.28230   4.30116   4.35668
 Alpha virt. eigenvalues --    4.37430   4.67559   4.91722   4.98239   5.11416
 Alpha virt. eigenvalues --    5.14169   5.17434   5.20639   5.39970   5.50722
 Alpha virt. eigenvalues --    5.62074   5.86389   5.90999   5.94705  23.75242
 Alpha virt. eigenvalues --   23.90856  24.00805  24.04828  24.06209  24.06348
 Alpha virt. eigenvalues --   24.08401  24.09182  24.14600  24.21876  24.23177
 Alpha virt. eigenvalues --   24.28893  35.69251  50.09761  50.10313  50.21668
          Condensed to atoms (all electrons):
               1          2          3          4          5          6
     1  C    5.309680   0.387081   0.415766  -0.067867   0.001502   0.239245
     2  H    0.387081   0.439703  -0.012662   0.000815  -0.005384  -0.044408
     3  H    0.415766  -0.012662   0.516584  -0.002278  -0.001465  -0.042517
     4  C   -0.067867   0.000815  -0.002278   5.188464   0.404825   0.249247
     5  H    0.001502  -0.005384  -0.001465   0.404825   0.528888  -0.040540
     6  N    0.239245  -0.044408  -0.042517   0.249247  -0.040540   6.742878
     7  H    0.411706  -0.018032  -0.055621   0.004101   0.002625  -0.032246
     8  H   -0.003630   0.003363  -0.001113   0.406490  -0.027429  -0.095906
     9  H   -0.000290  -0.005298   0.002454   0.402983  -0.058443  -0.038182
    10  C    0.125102   0.040456   0.001253  -0.124372  -0.029452   0.250855
    11  H    0.013518   0.000280  -0.000248  -0.037015   0.004001  -0.050669
    12  C    0.534087   0.043040  -0.042938  -0.087872   0.012075  -0.188042
    13  C   -0.488792  -0.040241   0.020360  -0.031013  -0.000517  -0.018750
    14  H    0.031045   0.001512  -0.016800  -0.010720   0.002153  -0.028440
    15  O   -0.000874   0.000103   0.000567  -0.000713  -0.000055   0.000372
    16  C   -0.403382  -0.018883   0.010022   0.036464  -0.000159  -0.039678
    17  C   -0.062122  -0.002154   0.001732   0.006549   0.000001  -0.002533
    18  C    0.024477  -0.003633   0.002921  -0.010256   0.000367   0.001813
    19  O   -0.000298  -0.000016   0.000035   0.000198   0.000004  -0.000127
    20  C    0.007788   0.000307  -0.001608  -0.000059   0.000043   0.000483
    21  C    0.009042   0.000408   0.000984   0.000397  -0.000055  -0.000034
    22  H   -0.002425  -0.000100   0.002443  -0.000972  -0.000282  -0.006123
    23  H   -0.001265  -0.000155  -0.000002   0.000416   0.000014   0.000032
    24  H    0.000056   0.000002  -0.000022   0.000022   0.000001  -0.000003
    25  C   -0.006881  -0.000264   0.000460   0.000181   0.000007  -0.000516
    26  H   -0.000187  -0.000018  -0.000354   0.000063   0.000007   0.000342
    27  O   -0.000005   0.000000   0.000006   0.000001   0.000000   0.000000
    28  C   -0.000108  -0.000003   0.000016   0.000007   0.000000  -0.000006
    29  H   -0.000024  -0.000002   0.000013  -0.000001   0.000000  -0.000005
    30  H    0.000006   0.000000  -0.000002   0.000000   0.000000   0.000000
    31  H   -0.000011  -0.000001   0.000008   0.000000   0.000000  -0.000002
               7          8          9         10         11         12
     1  C    0.411706  -0.003630  -0.000290   0.125102   0.013518   0.534087
     2  H   -0.018032   0.003363  -0.005298   0.040456   0.000280   0.043040
     3  H   -0.055621  -0.001113   0.002454   0.001253  -0.000248  -0.042938
     4  C    0.004101   0.406490   0.402983  -0.124372  -0.037015  -0.087872
     5  H    0.002625  -0.027429  -0.058443  -0.029452   0.004001   0.012075
     6  N   -0.032246  -0.095906  -0.038182   0.250855  -0.050669  -0.188042
     7  H    0.519526  -0.002216  -0.001202   0.016199  -0.000087  -0.024849
     8  H   -0.002216   0.525100  -0.027886   0.057326  -0.012966  -0.011292
     9  H   -0.001202  -0.027886   0.528226  -0.031618   0.002736   0.020668
    10  C    0.016199   0.057326  -0.031618  12.443321   0.331914   1.955986
    11  H   -0.000087  -0.012966   0.002736   0.331914   0.444289   0.234025
    12  C   -0.024849  -0.011292   0.020668   1.955986   0.234025  24.010095
    13  C   -0.020531   0.021310   0.002431  -4.509192  -0.027469  -0.208990
    14  H    0.011158  -0.003934   0.000258   0.036765   0.009336   1.023662
    15  O    0.000348   0.000958   0.000101  -0.025368  -0.007325  -0.749607
    16  C   -0.003253   0.010843   0.000482  -2.148172  -0.139874 -11.984335
    17  C   -0.001058   0.001661   0.000034  -0.836630  -0.035642  -5.780958
    18  C   -0.004083  -0.002411   0.000373  -1.614645   0.012386  -0.406607
    19  O    0.000027  -0.000099   0.000009  -0.020859   0.000235  -0.110760
    20  C   -0.001145  -0.000305   0.000025  -0.261688   0.004691   0.438055
    21  C    0.000235  -0.000009   0.000037   0.140380  -0.003846  -0.769009
    22  H   -0.006183   0.000522  -0.000009  -0.145912  -0.000552  -0.310753
    23  H   -0.000060   0.000034   0.000048  -0.032905   0.002178   0.079064
    24  H   -0.000016  -0.000001   0.000000  -0.001609  -0.000103  -0.003023
    25  C   -0.000065   0.000072   0.000006  -0.150047  -0.004433  -1.461249
    26  H    0.000311  -0.000004   0.000002   0.008780  -0.000090   0.034455
    27  O    0.000004   0.000000   0.000000   0.000812   0.000017   0.000246
    28  C   -0.000004   0.000001   0.000000   0.001704  -0.000070  -0.023604
    29  H   -0.000001   0.000000   0.000000  -0.000377   0.000002  -0.003251
    30  H   -0.000001   0.000000   0.000000   0.000110  -0.000002   0.000458
    31  H    0.000000   0.000000   0.000000  -0.000142   0.000004  -0.001322
              13         14         15         16         17         18
     1  C   -0.488792   0.031045  -0.000874  -0.403382  -0.062122   0.024477
     2  H   -0.040241   0.001512   0.000103  -0.018883  -0.002154  -0.003633
     3  H    0.020360  -0.016800   0.000567   0.010022   0.001732   0.002921
     4  C   -0.031013  -0.010720  -0.000713   0.036464   0.006549  -0.010256
     5  H   -0.000517   0.002153  -0.000055  -0.000159   0.000001   0.000367
     6  N   -0.018750  -0.028440   0.000372  -0.039678  -0.002533   0.001813
     7  H   -0.020531   0.011158   0.000348  -0.003253  -0.001058  -0.004083
     8  H    0.021310  -0.003934   0.000958   0.010843   0.001661  -0.002411
     9  H    0.002431   0.000258   0.000101   0.000482   0.000034   0.000373
    10  C   -4.509192   0.036765  -0.025368  -2.148172  -0.836630  -1.614645
    11  H   -0.027469   0.009336  -0.007325  -0.139874  -0.035642   0.012386
    12  C   -0.208990   1.023662  -0.749607 -11.984335  -5.780958  -0.406607
    13  C   16.880900  -0.144977   0.602487   1.631095  -3.686462  -0.372461
    14  H   -0.144977   0.664543  -0.021832  -0.389268  -0.052720  -0.081455
    15  O    0.602487  -0.021832   8.118067   0.259444  -0.028011  -0.027038
    16  C    1.631095  -0.389268   0.259444  24.086872   3.407976  -2.831677
    17  C   -3.686462  -0.052720  -0.028011   3.407976  15.926493  -3.944677
    18  C   -0.372461  -0.081455  -0.027038  -2.831677  -3.944677  14.162872
    19  O   -0.188793   0.000813   0.008862   0.025573   0.640137  -0.022534
    20  C    0.454299   0.051930  -0.061907  -3.959069  -0.243783   0.397926
    21  C   -1.312181  -0.133324   0.024744  -1.841548  -0.124519   2.292526
    22  H   -0.039966  -0.065871   0.004231  -0.068706   0.028438   0.632894
    23  H    0.073321   0.001190   0.206690  -0.197364  -0.058540   0.073479
    24  H   -0.012764   0.000444  -0.000869  -0.114535  -0.060931  -0.004651
    25  C   -2.211816  -0.045061   0.010230  -1.138718   0.688062  -0.696649
    26  H    0.035470   0.012693   0.000200   0.102842   0.012414  -0.006732
    27  O   -0.013565  -0.000665  -0.000022  -0.019414  -0.057178   0.006290
    28  C   -0.065338  -0.002354   0.000166  -0.157837   0.091065  -0.202414
    29  H   -0.003918  -0.000607   0.000002  -0.007556  -0.002946  -0.003872
    30  H   -0.000872  -0.000009   0.000006  -0.007467   0.001970  -0.008208
    31  H   -0.001895  -0.000440  -0.000005  -0.003093  -0.002981  -0.005583
              19         20         21         22         23         24
     1  C   -0.000298   0.007788   0.009042  -0.002425  -0.001265   0.000056
     2  H   -0.000016   0.000307   0.000408  -0.000100  -0.000155   0.000002
     3  H    0.000035  -0.001608   0.000984   0.002443  -0.000002  -0.000022
     4  C    0.000198  -0.000059   0.000397  -0.000972   0.000416   0.000022
     5  H    0.000004   0.000043  -0.000055  -0.000282   0.000014   0.000001
     6  N   -0.000127   0.000483  -0.000034  -0.006123   0.000032  -0.000003
     7  H    0.000027  -0.001145   0.000235  -0.006183  -0.000060  -0.000016
     8  H   -0.000099  -0.000305  -0.000009   0.000522   0.000034  -0.000001
     9  H    0.000009   0.000025   0.000037  -0.000009   0.000048   0.000000
    10  C   -0.020859  -0.261688   0.140380  -0.145912  -0.032905  -0.001609
    11  H    0.000235   0.004691  -0.003846  -0.000552   0.002178  -0.000103
    12  C   -0.110760   0.438055  -0.769009  -0.310753   0.079064  -0.003023
    13  C   -0.188793   0.454299  -1.312181  -0.039966   0.073321  -0.012764
    14  H    0.000813   0.051930  -0.133324  -0.065871   0.001190   0.000444
    15  O    0.008862  -0.061907   0.024744   0.004231   0.206690  -0.000869
    16  C    0.025573  -3.959069  -1.841548  -0.068706  -0.197364  -0.114535
    17  C    0.640137  -0.243783  -0.124519   0.028438  -0.058540  -0.060931
    18  C   -0.022534   0.397926   2.292526   0.632894   0.073479  -0.004651
    19  O    8.450016  -0.330274  -0.026751  -0.001901   0.083130  -0.016619
    20  C   -0.330274  13.622442  -3.267936  -0.003973   0.045932   0.634818
    21  C   -0.026751  -3.267936  10.689331   0.149982   0.015661  -0.066053
    22  H   -0.001901  -0.003973   0.149982   0.575077   0.002016   0.000892
    23  H    0.083130   0.045932   0.015661   0.002016   0.297631   0.000907
    24  H   -0.016619   0.634818  -0.066053   0.000892   0.000907   0.460379
    25  C    0.037942  -0.316363   0.253801   0.144337   0.005478  -0.039127
    26  H   -0.000598  -0.034429   0.398573  -0.036629  -0.000134  -0.000885
    27  O   -0.001409  -0.691240   0.259762   0.001780  -0.000133  -0.020018
    28  C   -0.000423   0.096864  -0.254153   0.015030   0.000543   0.005073
    29  H    0.000034  -0.014521   0.023299   0.003301   0.000011  -0.000422
    30  H   -0.000018   0.018040  -0.007230   0.000220   0.000038   0.000631
    31  H    0.000069  -0.007313   0.016524   0.002872   0.000002  -0.000480
              25         26         27         28         29         30
     1  C   -0.006881  -0.000187  -0.000005  -0.000108  -0.000024   0.000006
     2  H   -0.000264  -0.000018   0.000000  -0.000003  -0.000002   0.000000
     3  H    0.000460  -0.000354   0.000006   0.000016   0.000013  -0.000002
     4  C    0.000181   0.000063   0.000001   0.000007  -0.000001   0.000000
     5  H    0.000007   0.000007   0.000000   0.000000   0.000000   0.000000
     6  N   -0.000516   0.000342   0.000000  -0.000006  -0.000005   0.000000
     7  H   -0.000065   0.000311   0.000004  -0.000004  -0.000001  -0.000001
     8  H    0.000072  -0.000004   0.000000   0.000001   0.000000   0.000000
     9  H    0.000006   0.000002   0.000000   0.000000   0.000000   0.000000
    10  C   -0.150047   0.008780   0.000812   0.001704  -0.000377   0.000110
    11  H   -0.004433  -0.000090   0.000017  -0.000070   0.000002  -0.000002
    12  C   -1.461249   0.034455   0.000246  -0.023604  -0.003251   0.000458
    13  C   -2.211816   0.035470  -0.013565  -0.065338  -0.003918  -0.000872
    14  H   -0.045061   0.012693  -0.000665  -0.002354  -0.000607  -0.000009
    15  O    0.010230   0.000200  -0.000022   0.000166   0.000002   0.000006
    16  C   -1.138718   0.102842  -0.019414  -0.157837  -0.007556  -0.007467
    17  C    0.688062   0.012414  -0.057178   0.091065  -0.002946   0.001970
    18  C   -0.696649  -0.006732   0.006290  -0.202414  -0.003872  -0.008208
    19  O    0.037942  -0.000598  -0.001409  -0.000423   0.000034  -0.000018
    20  C   -0.316363  -0.034429  -0.691240   0.096864  -0.014521   0.018040
    21  C    0.253801   0.398573   0.259762  -0.254153   0.023299  -0.007230
    22  H    0.144337  -0.036629   0.001780   0.015030   0.003301   0.000220
    23  H    0.005478  -0.000134  -0.000133   0.000543   0.000011   0.000038
    24  H   -0.039127  -0.000885  -0.020018   0.005073  -0.000422   0.000631
    25  C   11.282105  -0.209426   0.419517   0.257496  -0.009217   0.037911
    26  H   -0.209426   0.484135  -0.020865  -0.025179  -0.013402   0.003266
    27  O    0.419517  -0.020865   8.226200   0.192765  -0.030848  -0.061718
    28  C    0.257496  -0.025179   0.192765   5.269312   0.409529   0.393060
    29  H   -0.009217  -0.013402  -0.030848   0.409529   0.553437  -0.019665
    30  H    0.037911   0.003266  -0.061718   0.393060  -0.019665   0.444140
    31  H   -0.016599  -0.012123  -0.030209   0.408592  -0.055364  -0.019376
              31
     1  C   -0.000011
     2  H   -0.000001
     3  H    0.000008
     4  C    0.000000
     5  H    0.000000
     6  N   -0.000002
     7  H    0.000000
     8  H    0.000000
     9  H    0.000000
    10  C   -0.000142
    11  H    0.000004
    12  C   -0.001322
    13  C   -0.001895
    14  H   -0.000440
    15  O   -0.000005
    16  C   -0.003093
    17  C   -0.002981
    18  C   -0.005583
    19  O    0.000069
    20  C   -0.007313
    21  C    0.016524
    22  H    0.002872
    23  H    0.000002
    24  H   -0.000480
    25  C   -0.016599
    26  H   -0.012123
    27  O   -0.030209
    28  C    0.408592
    29  H   -0.055364
    30  H   -0.019376
    31  H    0.548771
 Mulliken charges:
               1
     1  C   -0.471939
     2  H    0.234182
     3  H    0.202005
     4  C   -0.328086
     5  H    0.207267
     6  N    0.143462
     7  H    0.204413
     8  H    0.161522
     9  H    0.202056
    10  C    0.522026
    11  H    0.260779
    12  C   -0.217456
    13  C   -0.321170
    14  H    0.150974
    15  O   -0.313953
    16  C    1.902376
    17  C    0.177312
    18  C   -1.358738
    19  O   -0.525602
    20  C   -0.578032
    21  C   -0.469039
    22  H    0.126322
    23  H    0.402744
    24  H    0.238906
    25  C   -0.831172
    26  H    0.267502
    27  O   -0.160110
    28  C   -0.409729
    29  H    0.176371
    30  H    0.224712
    31  H    0.180096
 Sum of Mulliken charges =   0.00000
 Mulliken charges with hydrogens summed into heavy atoms:
               1
     1  C    0.168661
     4  C    0.242759
     6  N    0.143462
    10  C    0.782805
    12  C   -0.066482
    13  C   -0.321170
    15  O    0.088791
    16  C    1.902376
    17  C    0.177312
    18  C   -1.232416
    19  O   -0.525602
    20  C   -0.339127
    21  C   -0.201537
    25  C   -0.831172
    27  O   -0.160110
    28  C    0.171450
 Electronic spatial extent (au):  <R**2>=           5738.9665
 Charge=              0.0000 electrons
 Dipole moment (field-independent basis, Debye):
    X=             10.3425    Y=             -9.6603    Z=             -0.1422  Tot=             14.1530
 Quadrupole moment (field-independent basis, Debye-Ang):
   XX=            -47.1707   YY=            -99.0831   ZZ=            -99.2469
   XY=              8.7604   XZ=              0.8061   YZ=             -0.4318
 Traceless Quadrupole moment (field-independent basis, Debye-Ang):
   XX=             34.6629   YY=            -17.2495   ZZ=            -17.4133
   XY=              8.7604   XZ=              0.8061   YZ=             -0.4318
 Octapole moment (field-independent basis, Debye-Ang**2):
  XXX=            214.2999  YYY=            -67.2003  ZZZ=              0.7408  XYY=             20.6913
  XXY=            -91.5099  XXZ=             -0.1580  XZZ=              6.8699  YZZ=             -0.5945
  YYZ=             -1.3049  XYZ=             -1.0389
 Hexadecapole moment (field-independent basis, Debye-Ang**3):
 XXXX=          -4617.5616 YYYY=          -1275.8260 ZZZZ=           -129.1083 XXXY=            147.6966
 XXXZ=              9.1123 YYYX=             75.4243 YYYZ=             -4.3405 ZZZX=              1.4807
 ZZZY=             -1.4787 XXYY=          -1046.0347 XXZZ=          -1075.5507 YYZZ=           -223.3432
 XXYZ=             -3.5134 YYXZ=              2.6323 ZZXY=              2.5949
 N-N= 1.043728311101D+03 E-N=-3.830504717864D+03  KE= 7.435024972142D+02
 1\1\GINC-SM0\FOpt\RwB97XD TD-FC\6-311++G(d,p)\C12H15N1O3\CA12053\01-Fe
 b-2017\0\\# wb97xd 6-311++g** opt td=(nstates=1,root=1) SCRF=(PCM,solv
 ent=dichloromethane)\\restarted optimzation\\0,1\C,3.9671588518,2.1718
 0688,0.0199659345\H,4.9128992757,2.7101327827,0.0363129097\H,3.4145544
 403,2.459402486,-0.8814565498\C,5.6172223891,0.3174258552,0.0364693065
 \H,6.1300510052,0.6647640201,-0.8661234313\N,4.2315237598,0.7472831958
 ,0.029768298\H,3.3812072934,2.464714676,0.897895497\H,5.6652544705,-0.
 7699145744,0.0720787307\H,6.1355280703,0.7220625669,0.9108772595\C,3.2
 297751121,-0.1426131744,0.0118994972\H,3.5265813572,-1.1848484794,0.01
 43132875\C,1.8788872792,0.1742114739,-0.0061631719\C,0.8772004543,-0.8
 201497393,-0.0415563437\H,1.5778455539,1.2116339752,-0.0060808273\O,1.
 3014650418,-2.0997502791,-0.075251956\C,-0.529338884,-0.5161659016,-0.
 0464818262\C,-1.5185305524,-1.6153517881,-0.1847227603\C,-1.0392635231
 ,0.7819175965,0.0702606864\O,-1.1102085623,-2.8133389547,-0.2771088857
 \C,-2.8957485985,-1.2993931298,-0.2094255618\C,-2.4122164989,1.0534690
 328,0.0381664384\H,-0.3705637396,1.623547518,0.1944435131\H,0.48331516
 93,-2.6555435694,-0.1539798082\H,-3.6048349286,-2.1115237794,-0.315949
 4659\C,-3.3435577909,0.0127407896,-0.1047365906\H,-2.7349412209,2.0822
 593363,0.1285074008\O,-4.6866536947,0.1946731713,-0.1466013414\C,-5.19
 75726521,1.5121239531,-0.0360656002\H,-4.844211502,2.1452987463,-0.856
 0918584\H,-6.2800471348,1.4182664933,-0.0953656795\H,-4.9254923311,1.9
 647929196,0.9226971379\\Version=ES64L-G09RevD.01\State=1-A\HF=-746.670
 9976\RMSD=8.900e-09\RMSF=7.903e-06\Dipole=2.9197206,3.7742413,0.269378
 4\PG=C01 [X(C12H15N1O3)]\\@


 NOT WHAT WE DID SHALL BE THE TEST
 WHEN ACT AND WILL ARE DONE,
 BUT WHAT OUR LORD INFERS WE WOULD-
 HAD WE DIVINER BEEN.
           EMILY DICKINSON  POEMS NO. CLXXV
 Job cpu time:       8 days  6 hours 15 minutes 44.8 seconds.
 File lengths (MBytes):  RWF=    319 Int=      0 D2E=      0 Chk=     33 Scr=      1
 Normal termination of Gaussian 09 at Wed Feb  1 19:32:01 2017.
