 Entering Gaussian System, Link 0=g09
 Input=3_optS1_rotated_DCM.com
 Output=3_optS1_rotated_DCM.out
 Initial command:
 /share/apps/gaussian/g09_D01/g09/l1.exe "/tmp/3885722.1.serial.q/Gau-330.inp" -scrdir="/tmp/3885722.1.serial.q/"
 Entering Link 1 = /share/apps/gaussian/g09_D01/g09/l1.exe PID=       331.
  
 Copyright (c) 1988,1990,1992,1993,1995,1998,2003,2009,2013,
            Gaussian, Inc.  All Rights Reserved.
  
 This is part of the Gaussian(R) 09 program.  It is based on
 the Gaussian(R) 03 system (copyright 2003, Gaussian, Inc.),
 the Gaussian(R) 98 system (copyright 1998, Gaussian, Inc.),
 the Gaussian(R) 94 system (copyright 1995, Gaussian, Inc.),
 the Gaussian 92(TM) system (copyright 1992, Gaussian, Inc.),
 the Gaussian 90(TM) system (copyright 1990, Gaussian, Inc.),
 the Gaussian 88(TM) system (copyright 1988, Gaussian, Inc.),
 the Gaussian 86(TM) system (copyright 1986, Carnegie Mellon
 University), and the Gaussian 82(TM) system (copyright 1983,
 Carnegie Mellon University). Gaussian is a federally registered
 trademark of Gaussian, Inc.
  
 This software contains proprietary and confidential information,
 including trade secrets, belonging to Gaussian, Inc.
  
 This software is provided under written license and may be
 used, copied, transmitted, or stored only in accord with that
 written license.
  
 The following legend is applicable only to US Government
 contracts under FAR:
  
                    RESTRICTED RIGHTS LEGEND
  
 Use, reproduction and disclosure by the US Government is
 subject to restrictions as set forth in subparagraphs (a)
 and (c) of the Commercial Computer Software - Restricted
 Rights clause in FAR 52.227-19.
  
 Gaussian, Inc.
 340 Quinnipiac St., Bldg. 40, Wallingford CT 06492
  
  
 ---------------------------------------------------------------
 Warning -- This program may not be used in any manner that
 competes with the business of Gaussian, Inc. or will provide
 assistance to any competitor of Gaussian, Inc.  The licensee
 of this program is prohibited from giving any competitor of
 Gaussian, Inc. access to this program.  By using this program,
 the user acknowledges that Gaussian, Inc. is engaged in the
 business of creating and licensing software in the field of
 computational chemistry and represents and warrants to the
 licensee that it is not a competitor of Gaussian, Inc. and that
 it will not use this program in any manner prohibited above.
 ---------------------------------------------------------------
  

 Cite this work as:
 Gaussian 09, Revision D.01,
 M. J. Frisch, G. W. Trucks, H. B. Schlegel, G. E. Scuseria, 
 M. A. Robb, J. R. Cheeseman, G. Scalmani, V. Barone, B. Mennucci, 
 G. A. Petersson, H. Nakatsuji, M. Caricato, X. Li, H. P. Hratchian, 
 A. F. Izmaylov, J. Bloino, G. Zheng, J. L. Sonnenberg, M. Hada, 
 M. Ehara, K. Toyota, R. Fukuda, J. Hasegawa, M. Ishida, T. Nakajima, 
 Y. Honda, O. Kitao, H. Nakai, T. Vreven, J. A. Montgomery, Jr., 
 J. E. Peralta, F. Ogliaro, M. Bearpark, J. J. Heyd, E. Brothers, 
 K. N. Kudin, V. N. Staroverov, T. Keith, R. Kobayashi, J. Normand, 
 K. Raghavachari, A. Rendell, J. C. Burant, S. S. Iyengar, J. Tomasi, 
 M. Cossi, N. Rega, J. M. Millam, M. Klene, J. E. Knox, J. B. Cross, 
 V. Bakken, C. Adamo, J. Jaramillo, R. Gomperts, R. E. Stratmann, 
 O. Yazyev, A. J. Austin, R. Cammi, C. Pomelli, J. W. Ochterski, 
 R. L. Martin, K. Morokuma, V. G. Zakrzewski, G. A. Voth, 
 P. Salvador, J. J. Dannenberg, S. Dapprich, A. D. Daniels, 
 O. Farkas, J. B. Foresman, J. V. Ortiz, J. Cioslowski, 
 and D. J. Fox, Gaussian, Inc., Wallingford CT, 2013.
 
 ******************************************
 Gaussian 09:  ES64L-G09RevD.01 24-Apr-2013
                25-Dec-2016 
 ******************************************
 %chk=3_optS1_rotated_DCM.chk
 %mem=12GB
 %nproc=4
 Will use up to    4 processors via shared memory.
 ----------------------------------------------------------------------
 # wb97xd 6-311++g** opt td=(nstates=1,root=1) SCRF=(PCM,solvent=dichlo
 romethane)
 ----------------------------------------------------------------------
 1/14=-1,18=20,19=15,26=3,38=1/1,3;
 2/9=110,12=2,17=6,18=5,40=1/2;
 3/5=4,6=6,7=1111,11=9,16=1,25=1,30=1,70=2201,71=1,72=9,74=-58/1,2,8,3;
 4//1;
 5/5=2,38=5,53=9/2;
 8/6=1,10=2,107=1,108=1/1;
 9/8=1,15=2,41=1,42=1,70=2/14;
 10/5=4/2;
 6/7=2,8=2,9=2,10=2/1;
 7/12=6,13=5,14=1/1,2,3,16;
 1/14=-1,18=20,19=15,26=3/3(2);
 2/9=110/2;
 99//99;
 2/9=110/2;
 3/5=4,6=6,7=1111,11=9,16=1,25=1,30=1,70=2205,71=1,72=9,74=-58/1,2,8,3;
 4/5=5,16=3,69=1/1;
 5/5=2,38=5,53=9/2;
 8/6=1,10=2,107=1,108=1/1;
 9/8=1,15=2,41=1,42=1,49=4,70=2/14;
 10/5=4/2;
 7/12=6,13=5,14=1/1,2,3,16;
 1/14=-1,18=20,19=15,26=3/3(-8);
 2/9=110/2;
 6/7=2,8=2,9=2,10=2/1;
 99//99;
 -----
 title
 -----
 Symbolic Z-matrix:
 Charge =  0 Multiplicity = 1
 C                     4.00805   1.0854   -0.03896 
 H                     4.97226   1.41009  -0.42613 
 H                     3.51144   1.93754   0.43092 
 C                     3.79207   0.60506  -2.46969 
 H                     4.0087    1.63757  -2.75544 
 N                     3.20842   0.56532  -1.13901 
 H                     4.16985   0.30848   0.71182 
 H                     3.09749   0.17679  -3.19018 
 H                     4.72107   0.02971  -2.48745 
 C                     1.99065   0.072    -0.93249 
 H                     1.48283  -0.31683  -1.80806 
 C                     1.32419   0.02283   0.28148 
 C                     0.04894  -0.68463   0.36909 
 H                     1.83922   0.31379   1.19697 
 O                     0.42121  -1.92219   0.5574 
 C                    -1.26222  -0.15155   0.36864 
 C                    -2.38861  -1.01852   0.5102 
 C                    -1.52698   1.2194    0.21037 
 O                    -2.22214  -2.34962   0.67504 
 C                    -3.6711   -0.51677   0.47693 
 C                    -2.82389   1.72714   0.17673 
 H                    -0.69473   1.90872   0.11268 
 H                    -1.26717  -2.54194   0.68949 
 H                    -4.51166  -1.19095   0.58367 
 C                    -3.89759   0.85365   0.30803 
 H                    -2.97056   2.79179   0.05358 
 O                    -5.20952   1.22998   0.28937 
 C                    -5.49779   2.59712   0.13789 
 H                    -5.11694   2.9873   -0.81404 
 H                    -6.58369   2.68347   0.14951 
 H                    -5.08103   3.19102   0.96065 
 

 GradGradGradGradGradGradGradGradGradGradGradGradGradGradGradGradGradGrad
 Berny optimization.
 Initialization pass.
                           ----------------------------
                           !    Initial Parameters    !
                           ! (Angstroms and Degrees)  !
 --------------------------                            --------------------------
 ! Name  Definition              Value          Derivative Info.                !
 --------------------------------------------------------------------------------
 ! R1    R(1,2)                  1.0886         estimate D2E/DX2                !
 ! R2    R(1,3)                  1.0925         estimate D2E/DX2                !
 ! R3    R(1,6)                  1.456          estimate D2E/DX2                !
 ! R4    R(1,7)                  1.0925         estimate D2E/DX2                !
 ! R5    R(4,5)                  1.093          estimate D2E/DX2                !
 ! R6    R(4,6)                  1.4536         estimate D2E/DX2                !
 ! R7    R(4,8)                  1.0886         estimate D2E/DX2                !
 ! R8    R(4,9)                  1.0929         estimate D2E/DX2                !
 ! R9    R(6,10)                 1.33           estimate D2E/DX2                !
 ! R10   R(10,11)                1.0843         estimate D2E/DX2                !
 ! R11   R(10,12)                1.3858         estimate D2E/DX2                !
 ! R12   R(12,13)                1.461          estimate D2E/DX2                !
 ! R13   R(12,14)                1.09           estimate D2E/DX2                !
 ! R14   R(13,15)                1.306          estimate D2E/DX2                !
 ! R15   R(13,16)                1.4154         estimate D2E/DX2                !
 ! R16   R(16,17)                1.4284         estimate D2E/DX2                !
 ! R17   R(16,18)                1.4052         estimate D2E/DX2                !
 ! R18   R(17,19)                1.3516         estimate D2E/DX2                !
 ! R19   R(17,20)                1.3776         estimate D2E/DX2                !
 ! R20   R(18,21)                1.3932         estimate D2E/DX2                !
 ! R21   R(18,22)                1.0851         estimate D2E/DX2                !
 ! R22   R(19,23)                0.9742         estimate D2E/DX2                !
 ! R23   R(20,24)                1.0828         estimate D2E/DX2                !
 ! R24   R(20,25)                1.3992         estimate D2E/DX2                !
 ! R25   R(21,25)                1.3903         estimate D2E/DX2                !
 ! R26   R(21,26)                1.0817         estimate D2E/DX2                !
 ! R27   R(25,27)                1.365          estimate D2E/DX2                !
 ! R28   R(27,28)                1.4054         estimate D2E/DX2                !
 ! R29   R(28,29)                1.097          estimate D2E/DX2                !
 ! R30   R(28,30)                1.0894         estimate D2E/DX2                !
 ! R31   R(28,31)                1.097          estimate D2E/DX2                !
 ! A1    A(2,1,3)              108.8414         estimate D2E/DX2                !
 ! A2    A(2,1,6)              108.9212         estimate D2E/DX2                !
 ! A3    A(2,1,7)              108.9874         estimate D2E/DX2                !
 ! A4    A(3,1,6)              110.7267         estimate D2E/DX2                !
 ! A5    A(3,1,7)              109.0536         estimate D2E/DX2                !
 ! A6    A(6,1,7)              110.2758         estimate D2E/DX2                !
 ! A7    A(5,4,6)              110.1657         estimate D2E/DX2                !
 ! A8    A(5,4,8)              108.9702         estimate D2E/DX2                !
 ! A9    A(5,4,9)              108.9407         estimate D2E/DX2                !
 ! A10   A(6,4,8)              109.8129         estimate D2E/DX2                !
 ! A11   A(6,4,9)              109.9868         estimate D2E/DX2                !
 ! A12   A(8,4,9)              108.936          estimate D2E/DX2                !
 ! A13   A(1,6,4)              117.4743         estimate D2E/DX2                !
 ! A14   A(1,6,10)             121.199          estimate D2E/DX2                !
 ! A15   A(4,6,10)             121.3267         estimate D2E/DX2                !
 ! A16   A(6,10,11)            115.8769         estimate D2E/DX2                !
 ! A17   A(6,10,12)            126.1237         estimate D2E/DX2                !
 ! A18   A(11,10,12)           117.9975         estimate D2E/DX2                !
 ! A19   A(10,12,13)           119.3088         estimate D2E/DX2                !
 ! A20   A(10,12,14)           119.9391         estimate D2E/DX2                !
 ! A21   A(13,12,14)           119.4292         estimate D2E/DX2                !
 ! A22   A(12,13,15)           102.6325         estimate D2E/DX2                !
 ! A23   A(12,13,16)           128.7704         estimate D2E/DX2                !
 ! A24   A(15,13,16)           128.3899         estimate D2E/DX2                !
 ! A25   A(13,16,17)           120.1228         estimate D2E/DX2                !
 ! A26   A(13,16,18)           122.8214         estimate D2E/DX2                !
 ! A27   A(17,16,18)           117.0472         estimate D2E/DX2                !
 ! A28   A(16,17,19)           120.8446         estimate D2E/DX2                !
 ! A29   A(16,17,20)           120.7087         estimate D2E/DX2                !
 ! A30   A(19,17,20)           118.4463         estimate D2E/DX2                !
 ! A31   A(16,18,21)           122.254          estimate D2E/DX2                !
 ! A32   A(16,18,22)           119.0398         estimate D2E/DX2                !
 ! A33   A(21,18,22)           118.706          estimate D2E/DX2                !
 ! A34   A(17,19,23)           108.4784         estimate D2E/DX2                !
 ! A35   A(17,20,24)           119.5738         estimate D2E/DX2                !
 ! A36   A(17,20,25)           120.6864         estimate D2E/DX2                !
 ! A37   A(24,20,25)           119.7398         estimate D2E/DX2                !
 ! A38   A(18,21,25)           119.1866         estimate D2E/DX2                !
 ! A39   A(18,21,26)           119.1871         estimate D2E/DX2                !
 ! A40   A(25,21,26)           121.6258         estimate D2E/DX2                !
 ! A41   A(20,25,21)           120.1135         estimate D2E/DX2                !
 ! A42   A(20,25,27)           115.293          estimate D2E/DX2                !
 ! A43   A(21,25,27)           124.5933         estimate D2E/DX2                !
 ! A44   A(25,27,28)           117.8283         estimate D2E/DX2                !
 ! A45   A(27,28,29)           111.6112         estimate D2E/DX2                !
 ! A46   A(27,28,30)           106.2855         estimate D2E/DX2                !
 ! A47   A(27,28,31)           111.586          estimate D2E/DX2                !
 ! A48   A(29,28,30)           109.0941         estimate D2E/DX2                !
 ! A49   A(29,28,31)           109.0484         estimate D2E/DX2                !
 ! A50   A(30,28,31)           109.1349         estimate D2E/DX2                !
 ! D1    D(2,1,6,4)             -1.4896         estimate D2E/DX2                !
 ! D2    D(2,1,6,10)           178.4625         estimate D2E/DX2                !
 ! D3    D(3,1,6,4)            118.1625         estimate D2E/DX2                !
 ! D4    D(3,1,6,10)           -61.8853         estimate D2E/DX2                !
 ! D5    D(7,1,6,4)           -121.0475         estimate D2E/DX2                !
 ! D6    D(7,1,6,10)            58.9046         estimate D2E/DX2                !
 ! D7    D(5,4,6,1)            -60.6826         estimate D2E/DX2                !
 ! D8    D(5,4,6,10)           119.3654         estimate D2E/DX2                !
 ! D9    D(8,4,6,1)            179.2907         estimate D2E/DX2                !
 ! D10   D(8,4,6,10)            -0.6614         estimate D2E/DX2                !
 ! D11   D(9,4,6,1)             59.4181         estimate D2E/DX2                !
 ! D12   D(9,4,6,10)          -120.534          estimate D2E/DX2                !
 ! D13   D(1,6,10,11)         -178.3754         estimate D2E/DX2                !
 ! D14   D(1,6,10,12)            2.1422         estimate D2E/DX2                !
 ! D15   D(4,6,10,11)            1.5749         estimate D2E/DX2                !
 ! D16   D(4,6,10,12)         -177.9076         estimate D2E/DX2                !
 ! D17   D(6,10,12,13)        -173.3001         estimate D2E/DX2                !
 ! D18   D(6,10,12,14)          -6.5046         estimate D2E/DX2                !
 ! D19   D(11,10,12,13)          7.2273         estimate D2E/DX2                !
 ! D20   D(11,10,12,14)        174.0228         estimate D2E/DX2                !
 ! D21   D(10,12,13,15)         84.3201         estimate D2E/DX2                !
 ! D22   D(10,12,13,16)       -100.6243         estimate D2E/DX2                !
 ! D23   D(14,12,13,15)        -82.5434         estimate D2E/DX2                !
 ! D24   D(14,12,13,16)         92.5122         estimate D2E/DX2                !
 ! D25   D(12,13,16,17)       -177.836          estimate D2E/DX2                !
 ! D26   D(12,13,16,18)          3.2646         estimate D2E/DX2                !
 ! D27   D(15,13,16,17)         -3.9957         estimate D2E/DX2                !
 ! D28   D(15,13,16,18)        177.1048         estimate D2E/DX2                !
 ! D29   D(13,16,17,19)          1.4431         estimate D2E/DX2                !
 ! D30   D(13,16,17,20)       -178.3207         estimate D2E/DX2                !
 ! D31   D(18,16,17,19)       -179.5953         estimate D2E/DX2                !
 ! D32   D(18,16,17,20)          0.6409         estimate D2E/DX2                !
 ! D33   D(13,16,18,21)        178.2824         estimate D2E/DX2                !
 ! D34   D(13,16,18,22)         -1.8381         estimate D2E/DX2                !
 ! D35   D(17,16,18,21)         -0.6488         estimate D2E/DX2                !
 ! D36   D(17,16,18,22)        179.2307         estimate D2E/DX2                !
 ! D37   D(16,17,19,23)          1.0094         estimate D2E/DX2                !
 ! D38   D(20,17,19,23)       -179.2215         estimate D2E/DX2                !
 ! D39   D(16,17,20,24)        179.8521         estimate D2E/DX2                !
 ! D40   D(16,17,20,25)         -0.2072         estimate D2E/DX2                !
 ! D41   D(19,17,20,24)          0.0827         estimate D2E/DX2                !
 ! D42   D(19,17,20,25)       -179.9765         estimate D2E/DX2                !
 ! D43   D(16,18,21,25)          0.2139         estimate D2E/DX2                !
 ! D44   D(16,18,21,26)        179.9407         estimate D2E/DX2                !
 ! D45   D(22,18,21,25)       -179.666          estimate D2E/DX2                !
 ! D46   D(22,18,21,26)          0.0608         estimate D2E/DX2                !
 ! D47   D(17,20,25,21)         -0.2533         estimate D2E/DX2                !
 ! D48   D(17,20,25,27)        179.9059         estimate D2E/DX2                !
 ! D49   D(24,20,25,21)        179.6873         estimate D2E/DX2                !
 ! D50   D(24,20,25,27)         -0.1535         estimate D2E/DX2                !
 ! D51   D(18,21,25,20)          0.2522         estimate D2E/DX2                !
 ! D52   D(18,21,25,27)       -179.9226         estimate D2E/DX2                !
 ! D53   D(26,21,25,20)       -179.4676         estimate D2E/DX2                !
 ! D54   D(26,21,25,27)          0.3575         estimate D2E/DX2                !
 ! D55   D(20,25,27,28)        179.2848         estimate D2E/DX2                !
 ! D56   D(21,25,27,28)         -0.5479         estimate D2E/DX2                !
 ! D57   D(25,27,28,29)         61.2318         estimate D2E/DX2                !
 ! D58   D(25,27,28,30)       -179.9326         estimate D2E/DX2                !
 ! D59   D(25,27,28,31)        -61.0617         estimate D2E/DX2                !
 --------------------------------------------------------------------------------
 Trust Radius=3.00D-01 FncErr=1.00D-07 GrdErr=1.00D-06
 Number of steps in this run=    150 maximum allowed number of steps=    186.
 GradGradGradGradGradGradGradGradGradGradGradGradGradGradGradGradGradGrad

                          Input orientation:                          
 ---------------------------------------------------------------------
 Center     Atomic      Atomic             Coordinates (Angstroms)
 Number     Number       Type             X           Y           Z
 ---------------------------------------------------------------------
      1          6           0        4.008046    1.085397   -0.038960
      2          1           0        4.972255    1.410085   -0.426134
      3          1           0        3.511440    1.937537    0.430916
      4          6           0        3.792071    0.605060   -2.469688
      5          1           0        4.008700    1.637569   -2.755439
      6          7           0        3.208415    0.565320   -1.139005
      7          1           0        4.169847    0.308481    0.711820
      8          1           0        3.097488    0.176791   -3.190182
      9          1           0        4.721070    0.029710   -2.487454
     10          6           0        1.990654    0.071999   -0.932489
     11          1           0        1.482828   -0.316827   -1.808064
     12          6           0        1.324191    0.022830    0.281480
     13          6           0        0.048937   -0.684632    0.369090
     14          1           0        1.839216    0.313794    1.196966
     15          8           0        0.421213   -1.922190    0.557397
     16          6           0       -1.262221   -0.151549    0.368638
     17          6           0       -2.388609   -1.018517    0.510202
     18          6           0       -1.526981    1.219399    0.210365
     19          8           0       -2.222140   -2.349622    0.675040
     20          6           0       -3.671104   -0.516766    0.476929
     21          6           0       -2.823886    1.727135    0.176732
     22          1           0       -0.694732    1.908718    0.112676
     23          1           0       -1.267169   -2.541935    0.689486
     24          1           0       -4.511655   -1.190954    0.583672
     25          6           0       -3.897585    0.853650    0.308030
     26          1           0       -2.970559    2.791788    0.053577
     27          8           0       -5.209522    1.229978    0.289365
     28          6           0       -5.497795    2.597117    0.137894
     29          1           0       -5.116937    2.987303   -0.814040
     30          1           0       -6.583685    2.683469    0.149513
     31          1           0       -5.081028    3.191016    0.960653
 ---------------------------------------------------------------------
                    Distance matrix (angstroms):
                    1          2          3          4          5
     1  C    0.000000
     2  H    1.088589   0.000000
     3  H    1.092494   1.773900   0.000000
     4  C    2.487128   2.493394   3.204333   0.000000
     5  H    2.772030   2.530978   3.238843   1.093003   0.000000
     6  N    1.456018   2.081573   2.107002   1.453599   2.098341
     7  H    1.092451   1.775480   1.779390   3.217556   3.716763
     8  H    3.403657   3.560299   4.047707   1.088564   1.775720
     9  H    2.760073   2.493505   3.690514   1.092878   1.778903
    10  C    2.428012   3.307085   2.766206   2.427393   3.137940
    11  H    3.387136   4.131350   3.769676   2.572980   3.331248
    12  C    2.904274   3.966556   2.910755   3.741437   4.363124
    13  C    4.355921   5.409185   4.343791   4.871655   5.552929
    14  H    2.612797   3.694894   2.453509   4.164472   4.698994
    15  O    4.718749   5.725677   4.946008   5.187766   6.042916
    16  C    5.428802   6.476037   5.211142   5.845889   6.383056
    17  C    6.756125   7.807506   6.599630   7.050997   7.657987
    18  C    5.542260   6.533113   5.094119   5.987688   6.294015
    19  O    7.150131   8.191905   7.163328   7.402040   8.154094
    20  C    7.861451   8.901457   7.590432   8.101853   8.606320
    21  C    6.865395   7.825841   6.343913   7.213423   7.435717
    22  H    4.776711   5.714341   4.218292   5.338495   5.515603
    23  H    6.443296   7.469503   6.554970   6.743876   7.561121
    24  H    8.840517   9.885831   8.612830   9.027765   9.578447
    25  C    7.916635   8.917549   7.488896   8.179751   8.515205
    26  H    7.184794   8.076356   6.548927   7.542003   7.611363
    27  O    9.224547  10.208475   8.750763   9.435654   9.716614
    28  C    9.626920  10.552209   9.038098   9.852380   9.983264
    29  H    9.353251  10.219094   8.780707   9.369454   9.426986
    30  H   10.713268  11.640130  10.126557  10.901207  11.033190
    31  H    9.383183  10.303562   8.699560   9.858311   9.942117
                    6          7          8          9         10
     6  N    0.000000
     7  H    2.101397   0.000000
     8  H    2.090595   4.048817   0.000000
     9  H    2.096024   3.258361   1.775240   0.000000
    10  C    1.330021   2.740175   2.516593   3.142432   0.000000
    11  H    2.050237   3.736428   2.181980   3.326841   1.084299
    12  C    2.421234   2.892153   3.901375   4.382446   1.385753
    13  C    3.717396   4.252721   4.764885   5.522586   2.457003
    14  H    2.719326   2.380596   4.566080   4.686228   2.148482
    15  O    4.102923   4.364859   5.060881   5.618701   2.942736
    16  C    4.772156   5.462304   5.637381   6.632487   3.510570
    17  C    6.046081   6.694395   6.724497   7.786672   4.737988
    18  C    4.967151   5.790948   5.834078   6.908815   3.872518
    19  O    6.424840   6.922742   7.044228   7.991918   5.118206
    20  C    7.149121   7.887758   7.729331   8.917106   5.864180
    21  C    6.282486   7.156200   6.985868   8.179578   5.210532
    22  H    4.313465   5.155954   5.318776   6.294621   3.417192
    23  H    5.747109   6.138934   6.441547   7.250194   4.480721
    24  H    8.102567   8.810971   8.603009   9.806378   6.795132
    25  C    7.257567   8.095907   7.850266   9.098067   6.068049
    26  H    6.675263   7.588511   7.360800   8.558450   5.743101
    27  O    8.564092   9.433991   9.067682  10.381138   7.394348
    28  C    9.030878   9.951409   9.529583  10.858602   7.974886
    29  H    8.676583   9.785126   9.001211  10.408365   7.683155
    30  H   10.101092  11.027022  10.543344  11.907708   9.028277
    31  H    8.945262   9.692761   9.654176  10.861143   7.957446
                   11         12         13         14         15
    11  H    0.000000
    12  C    2.122905   0.000000
    13  C    2.632741   1.460976   0.000000
    14  H    3.091100   1.089966   2.210731   0.000000
    15  O    3.049528   2.162083   1.305986   2.723859   0.000000
    16  C    3.507227   2.593749   1.415384   3.243699   2.450459
    17  C    4.566700   3.862849   2.464350   4.485666   2.951940
    18  C    3.936114   3.092898   2.476700   3.622814   3.712879
    19  O    4.901515   4.284843   2.832594   4.884752   2.680271
    20  C    5.641293   5.028154   3.725388   5.618889   4.327673
    21  C    5.163815   4.485774   3.755893   4.978246   4.898280
    22  H    3.658423   2.767873   2.710029   3.184393   4.014843
    23  H    4.330282   3.668738   2.298774   4.249983   1.803376
    24  H    6.512935   5.968391   4.593627   6.555453   4.986841
    25  C    5.898874   5.287524   4.236163   5.830312   5.139989
    26  H    5.741241   5.115070   4.615452   5.530075   5.829197
    27  O    7.181877   6.644296   5.596738   7.165741   6.458574
    28  C    7.810693   7.292946   6.448997   7.756734   7.458872
    29  H    7.447299   7.174705   6.447415   7.718799   7.526956
    30  H    8.826240   8.344514   7.442042   8.812365   8.393275
    31  H    7.940715   7.178127   6.456558   7.498268   7.522111
                   16         17         18         19         20
    16  C    0.000000
    17  C    1.428434   0.000000
    18  C    1.405221   2.416728   0.000000
    19  O    2.418026   1.351564   3.665662   0.000000
    20  C    2.438817   1.377554   2.771748   2.344804   0.000000
    21  C    2.450526   2.799870   1.393158   4.150946   2.417227
    22  H    2.152269   3.405283   1.085054   4.558803   3.856740
    23  H    2.411828   1.900151   3.800617   0.974250   3.150459
    24  H    3.418395   2.131304   3.854535   2.567633   1.082797
    25  C    2.821213   2.413067   2.400640   3.633561   1.399236
    26  H    3.417735   3.881443   2.140305   5.232633   3.408302
    27  O    4.182832   3.614146   3.683403   4.678326   2.335171
    28  C    5.054552   4.783143   4.203656   5.957237   3.626019
    29  H    5.109790   5.024339   4.130699   6.251398   4.004439
    30  H    6.033517   5.606555   5.264737   6.680663   4.339566
    31  H    5.109453   5.017190   4.132972   6.241273   3.996188
                   21         22         23         24         25
    21  C    0.000000
    22  H    2.137843   0.000000
    23  H    4.572881   4.524235   0.000000
    24  H    3.395498   4.939505   3.516111   0.000000
    25  C    1.390340   3.377810   4.312145   2.152549   0.000000
    26  H    1.081742   2.441863   5.635115   4.303279   2.163447
    27  O    2.439490   4.568943   5.470793   2.536641   1.364972
    28  C    2.812146   4.852210   6.679244   3.939628   2.372614
    29  H    2.797809   4.645217   6.903172   4.447223   2.701543
    30  H    3.879614   5.939812   7.474073   4.415083   3.253997
    31  H    2.802172   4.647897   6.890993   4.434858   2.699951
                   26         27         28         29         30
    26  H    0.000000
    27  O    2.740037   0.000000
    28  C    2.536125   1.405387   0.000000
    29  H    2.323343   2.077081   1.097031   0.000000
    30  H    3.616022   2.005123   1.089380   1.781039   0.000000
    31  H    2.331577   2.076730   1.096970   1.786707   1.781440
                   31
    31  H    0.000000
 Stoichiometry    C12H15NO3
 Framework group  C1[X(C12H15NO3)]
 Deg. of freedom    87
 Full point group                 C1      NOp   1
 Largest Abelian subgroup         C1      NOp   1
 Largest concise Abelian subgroup C1      NOp   1
                         Standard orientation:                         
 ---------------------------------------------------------------------
 Center     Atomic      Atomic             Coordinates (Angstroms)
 Number     Number       Type             X           Y           Z
 ---------------------------------------------------------------------
      1          6           0        4.631921   -0.938097   -1.112774
      2          1           0        5.618015   -1.388136   -1.012235
      3          1           0        3.997225   -1.606411   -1.699341
      4          6           0        4.863505   -1.161623    1.353440
      5          1           0        5.041271   -2.238783    1.300689
      6          7           0        4.071220   -0.728117    0.214446
      7          1           0        4.728018    0.014836   -1.638257
      8          1           0        4.335389   -0.934984    2.277940
      9          1           0        5.825551   -0.643137    1.358308
     10          6           0        2.879595   -0.160173    0.377000
     11          1           0        2.557709   -0.020978    1.403021
     12          6           0        2.026151    0.251705   -0.634089
     13          6           0        0.815019    0.992827   -0.290069
     14          1           0        2.356301    0.217416   -1.672284
     15          8           0        1.248677    2.221163   -0.196624
     16          6           0       -0.516161    0.521134   -0.196378
     17          6           0       -1.577207    1.425979    0.113239
     18          6           0       -0.859861   -0.829730   -0.374374
     19          8           0       -1.334390    2.743471    0.292060
     20          6           0       -2.872234    0.974132    0.241275
     21          6           0       -2.169469   -1.286983   -0.245007
     22          1           0       -0.080951   -1.543043   -0.623023
     23          1           0       -0.382899    2.903241    0.156781
     24          1           0       -3.662026    1.675764    0.478743
     25          6           0       -3.176501   -0.380388    0.066470
     26          1           0       -2.378422   -2.337875   -0.393766
     27          8           0       -4.492844   -0.707004    0.220466
     28          6           0       -4.860479   -2.051581    0.041385
     29          1           0       -4.358741   -2.707291    0.763729
     30          1           0       -5.936481   -2.098474    0.205000
     31          1           0       -4.635713   -2.399578   -0.974352
 ---------------------------------------------------------------------
 Rotational constants (GHZ):      1.0208808      0.2257230      0.1954615
 Standard basis: 6-311++G(d,p) (5D, 7F)
 There are   473 symmetry adapted cartesian basis functions of A   symmetry.
 There are   457 symmetry adapted basis functions of A   symmetry.
   457 basis functions,   711 primitive gaussians,   473 cartesian basis functions
    59 alpha electrons       59 beta electrons
       nuclear repulsion energy      1047.4362368048 Hartrees.
 NAtoms=   31 NActive=   31 NUniq=   31 SFac= 1.00D+00 NAtFMM=   60 NAOKFM=F Big=F
 Integral buffers will be    131072 words long.
 Raffenetti 1 integral format.
 Two-electron integral symmetry is turned on.
 Nuclear repulsion after empirical dispersion term =     1047.4181818795 Hartrees.
 ------------------------------------------------------------------------------
 Polarizable Continuum Model (PCM)
 =================================
 Model                : PCM (using non-symmetric T matrix).
 Atomic radii         : UFF (Universal Force Field).
 Polarization charges : Total charges.
 Charge compensation  : None.
 Solution method      : On-the-fly selection.
 Cavity type          : Scaled VdW (van der Waals Surface) (Alpha=1.100).
 Cavity algorithm     : GePol (No added spheres)
                        Default sphere list used, NSphG=   31.
                        Lebedev-Laikov grids with approx.  5.0 points / Ang**2.
                        Smoothing algorithm: Karplus/York (Gamma=1.0000).
                        Polarization charges: spherical gaussians, with
                                              point-specific exponents (IZeta= 3).
                        Self-potential: point-specific (ISelfS= 7).
                        Self-field    : sphere-specific E.n sum rule (ISelfD= 2).
 1st derivatives      : Analytical E(r).r(x)/FMM algorithm (CHGder, D1EAlg=3).
                        Cavity 1st derivative terms included.
 Solvent              : Dichloromethane, Eps=   8.930000 Eps(inf)=   2.028346
 ------------------------------------------------------------------------------
 One-electron integrals computed using PRISM.
 NBasis=   457 RedAO= T EigKep=  1.18D-06  NBF=   457
 NBsUse=   455 1.00D-06 EigRej=  5.27D-07 NBFU=   455
 ExpMin= 3.60D-02 ExpMax= 8.59D+03 ExpMxC= 1.30D+03 IAcc=3 IRadAn=         5 AccDes= 0.00D+00
 Harris functional with IExCor= 4639 and IRadAn=       5 diagonalized for initial guess.
 HarFok:  IExCor= 4639 AccDes= 0.00D+00 IRadAn=         5 IDoV= 1 UseB2=F ITyADJ=14
 ICtDFT=  3500011 ScaDFX=  1.000000  1.000000  1.000000  1.000000
 FoFCou: FMM=F IPFlag=           0 FMFlag=      100000 FMFlg1=           0
         NFxFlg=           0 DoJE=T BraDBF=F KetDBF=T FulRan=T
         wScrn=  0.000000 ICntrl=     500 IOpCl=  0 I1Cent=   200000004 NGrid=           0
         NMat0=    1 NMatS0=      1 NMatT0=    0 NMatD0=    1 NMtDS0=    0 NMtDT0=    0
 Petite list used in FoFCou.
 Requested convergence on RMS density matrix=1.00D-08 within 128 cycles.
 Requested convergence on MAX density matrix=1.00D-06.
 Requested convergence on             energy=1.00D-06.
 No special actions if energy rises.
 Inv3:  Mode=1 IEnd=    17007483.
 Iteration    1 A*A^-1 deviation from unit magnitude is 4.66D-15 for   2373.
 Iteration    1 A*A^-1 deviation from orthogonality  is 5.68D-15 for   2349    181.
 Iteration    1 A^-1*A deviation from unit magnitude is 5.33D-15 for   2373.
 Iteration    1 A^-1*A deviation from orthogonality  is 1.16D-12 for   2374   2273.
 Error on total polarization charges =  0.01427
 SCF Done:  E(RwB97XD) =  -746.640222024     A.U. after   19 cycles
            NFock= 19  Conv=0.25D-08     -V/T= 2.0041
 DoSCS=F DFT=T ScalE2(SS,OS)=  1.000000  1.000000
 ExpMin= 3.60D-02 ExpMax= 8.59D+03 ExpMxC= 1.30D+03 IAcc=3 IRadAn=         5 AccDes= 0.00D+00
 HarFok:  IExCor=  205 AccDes= 0.00D+00 IRadAn=         5 IDoV=-2 UseB2=F ITyADJ=14
 ICtDFT= 12500011 ScaDFX=  1.000000  1.000000  1.000000  1.000000
 Range of M.O.s used for correlation:    17   455
 NBasis=   457 NAE=    59 NBE=    59 NFC=    16 NFV=     0
 NROrb=    439 NOA=    43 NOB=    43 NVA=   396 NVB=   396

 **** Warning!!: The largest alpha MO coefficient is  0.14977466D+03

 Would need an additional         31299800000 words for in-memory AO integral storage.
 NEqPCM:  Using equilibrium solvation (IEInf=0, Eps=   8.9300, EpsInf=   2.0283)
 Orbital symmetries:
       Occupied  (A) (A) (A) (A) (A) (A) (A) (A) (A) (A) (A) (A)
                 (A) (A) (A) (A) (A) (A) (A) (A) (A) (A) (A) (A)
                 (A) (A) (A) (A) (A) (A) (A) (A) (A) (A) (A) (A)
                 (A) (A) (A) (A) (A) (A) (A) (A) (A) (A) (A) (A)
                 (A) (A) (A) (A) (A) (A) (A) (A) (A) (A) (A)
       Virtual   (A) (A) (A) (A) (A) (A) (A) (A) (A) (A) (A) (A)
                 (A) (A) (A) (A) (A) (A) (A) (A) (A) (A) (A) (A)
                 (A) (A) (A) (A) (A) (A) (A) (A) (A) (A) (A) (A)
                 (A) (A) (A) (A) (A) (A) (A) (A) (A) (A) (A) (A)
                 (A) (A) (A) (A) (A) (A) (A) (A) (A) (A) (A) (A)
                 (A) (A) (A) (A) (A) (A) (A) (A) (A) (A) (A) (A)
                 (A) (A) (A) (A) (A) (A) (A) (A) (A) (A) (A) (A)
                 (A) (A) (A) (A) (A) (A) (A) (A) (A) (A) (A) (A)
                 (A) (A) (A) (A) (A) (A) (A) (A) (A) (A) (A) (A)
                 (A) (A) (A) (A) (A) (A) (A) (A) (A) (A) (A) (A)
                 (A) (A) (A) (A) (A) (A) (A) (A) (A) (A) (A) (A)
                 (A) (A) (A) (A) (A) (A) (A) (A) (A) (A) (A) (A)
                 (A) (A) (A) (A) (A) (A) (A) (A) (A) (A) (A) (A)
                 (A) (A) (A) (A) (A) (A) (A) (A) (A) (A) (A) (A)
                 (A) (A) (A) (A) (A) (A) (A) (A) (A) (A) (A) (A)
                 (A) (A) (A) (A) (A) (A) (A) (A) (A) (A) (A) (A)
                 (A) (A) (A) (A) (A) (A) (A) (A) (A) (A) (A) (A)
                 (A) (A) (A) (A) (A) (A) (A) (A) (A) (A) (A) (A)
                 (A) (A) (A) (A) (A) (A) (A) (A) (A) (A) (A) (A)
                 (A) (A) (A) (A) (A) (A) (A) (A) (A) (A) (A) (A)
                 (A) (A) (A) (A) (A) (A) (A) (A) (A) (A) (A) (A)
                 (A) (A) (A) (A) (A) (A) (A) (A) (A) (A) (A) (A)
                 (A) (A) (A) (A) (A) (A) (A) (A) (A) (A) (A) (A)
                 (A) (A) (A) (A) (A) (A) (A) (A) (A) (A) (A) (A)
                 (A) (A) (A) (A) (A) (A) (A) (A) (A) (A) (A) (A)
                 (A) (A) (A) (A) (A) (A) (A) (A) (A) (A) (A) (A)
                 (A) (A) (A) (A) (A) (A) (A) (A) (A) (A) (A) (A)
                 (A) (A) (A) (A) (A) (A) (A) (A) (A) (A) (A) (A)
                 (A) (A) (A) (A) (A) (A) (A) (A) (A) (A) (A) (A)
                 (A) (A) (A) (A) (A) (A) (A) (A) (A) (A) (A) (A)
                 (A) (A) (A) (A) (A) (A) (A) (A) (A) (A) (A) (A)
                 (A) (A) (A) (A) (A) (A) (A) (A) (A) (A) (A) (A)
                 (A) (A) (A) (A) (A) (A) (A) (A) (A) (A) (A) (A)
     8 initial guesses have been made.
 Convergence on wavefunction:    0.000001000000000
 Iteration     1 Dimension     8 NMult     0 NNew      8
 CISAX will form     8 AO SS matrices at one time.
 Iteration     2 Dimension    12 NMult     8 NNew      4
 Iteration     3 Dimension    16 NMult    12 NNew      4
 Iteration     4 Dimension    20 NMult    16 NNew      4
 Iteration     5 Dimension    24 NMult    20 NNew      4
 Iteration     6 Dimension    28 NMult    24 NNew      4
 Iteration     7 Dimension    32 NMult    28 NNew      4
 Iteration     8 Dimension    36 NMult    32 NNew      4
 Iteration     9 Dimension    40 NMult    36 NNew      4
 Iteration    10 Dimension    44 NMult    40 NNew      4
 Iteration    11 Dimension    48 NMult    44 NNew      4
 ***********************************************************************
 Excited states from <AA,BB:AA,BB> singles matrix:
 ***********************************************************************
 
 Ground to excited state transition densities written to RWF  633
 Ground to excited state transition electric dipole moments (Au):
       state          X           Y           Z        Dip. S.      Osc.
         1         0.0545      0.0464     -0.0267      0.0058      0.0003
 Ground to excited state transition velocity dipole moments (Au):
       state          X           Y           Z        Dip. S.      Osc.
         1        -0.0052     -0.0068     -0.0009      0.0001      0.0006
 Ground to excited state transition magnetic dipole moments (Au):
       state          X           Y           Z
         1         0.1952      0.2815      0.0214
 Ground to excited state transition velocity quadrupole moments (Au):
       state          XX          YY          ZZ          XY          XZ          YZ
         1         0.0143     -0.0096      0.0076     -0.0220      0.0015      0.0073
 <0|del|b> * <b|rxdel|0> + <0|del|b> * <b|delr+rdel|0>
 Rotatory Strengths (R) in cgs (10**-40 erg-esu-cm/Gauss)
       state          XX          YY          ZZ    R(velocity)    E-M Angle
         1        -7.8699     -4.5280    -12.0128     -8.1369      176.43
 1/2[<0|r|b>*<b|rxdel|0> + (<0|rxdel|b>*<b|r|0>)*]
 Rotatory Strengths (R) in cgs (10**-40 erg-esu-cm/Gauss)
       state          XX          YY          ZZ     R(length)
         1        -7.5167     -9.2281      0.4033     -5.4472
  1/2[<0|del|b>*<b|r|0> + (<0|r|b>*<b|del|0>)*] (Au)
       state          X           Y           Z        Dip. S.   Osc.(frdel)
         1        -0.0003     -0.0003      0.0000      0.0006      0.0004

 Excitation energies and oscillator strengths:
 
 Excited State   1:      Singlet-A      2.3317 eV  531.73 nm  f=0.0003  <S**2>=0.000
      56 -> 60        -0.15097
      59 -> 60         0.66610
      59 -> 76        -0.11760
 This state for optimization and/or second-order correction.
 Total Energy, E(TD-HF/TD-KS) =  -746.554533826    
 Copying the excited state density for this state as the 1-particle RhoCI density.
 SavETr:  write IOETrn=   770 NScale= 10 NData=  16 NLR=1 NState=    1 LETran=      28.
          IDoAtm=1111111111111111111111111111111
 NEqPCM:  Using equilibrium solvation (IEInf=0, Eps=   8.9300, EpsInf=   2.0283)
          Differentiating once with respect to electric field.
                with respect to dipole field.
          Differentiating once with respect to nuclear coordinates.
          There are     1 degrees of freedom in the 1st order CPHF.  IDoFFX=0 NUNeed=     1.
 LinEq1:  Iter=  0 NonCon=     1 RMS=4.86D-03 Max=1.18D-01 NDo=     1
 AX will form     1 AO Fock derivatives at one time.
 LinEq1:  Iter=  1 NonCon=     1 RMS=1.78D-03 Max=6.86D-02 NDo=     1
 LinEq1:  Iter=  2 NonCon=     1 RMS=1.37D-03 Max=6.44D-02 NDo=     1
 LinEq1:  Iter=  3 NonCon=     1 RMS=6.16D-04 Max=5.19D-02 NDo=     1
 LinEq1:  Iter=  4 NonCon=     1 RMS=3.71D-04 Max=1.04D-02 NDo=     1
 LinEq1:  Iter=  5 NonCon=     1 RMS=1.84D-04 Max=1.02D-02 NDo=     1
 LinEq1:  Iter=  6 NonCon=     1 RMS=8.82D-05 Max=3.29D-03 NDo=     1
 LinEq1:  Iter=  7 NonCon=     1 RMS=3.99D-05 Max=2.03D-03 NDo=     1
 LinEq1:  Iter=  8 NonCon=     1 RMS=1.99D-05 Max=1.26D-03 NDo=     1
 LinEq1:  Iter=  9 NonCon=     1 RMS=1.02D-05 Max=6.61D-04 NDo=     1
 LinEq1:  Iter= 10 NonCon=     1 RMS=4.64D-06 Max=2.31D-04 NDo=     1
 LinEq1:  Iter= 11 NonCon=     1 RMS=2.35D-06 Max=9.19D-05 NDo=     1
 LinEq1:  Iter= 12 NonCon=     1 RMS=1.05D-06 Max=4.84D-05 NDo=     1
 LinEq1:  Iter= 13 NonCon=     1 RMS=5.80D-07 Max=3.77D-05 NDo=     1
 LinEq1:  Iter= 14 NonCon=     1 RMS=2.53D-07 Max=9.19D-06 NDo=     1
 LinEq1:  Iter= 15 NonCon=     1 RMS=1.08D-07 Max=4.78D-06 NDo=     1
 LinEq1:  Iter= 16 NonCon=     1 RMS=4.09D-08 Max=1.35D-06 NDo=     1
 LinEq1:  Iter= 17 NonCon=     1 RMS=1.99D-08 Max=8.57D-07 NDo=     1
 LinEq1:  Iter= 18 NonCon=     1 RMS=9.19D-09 Max=2.98D-07 NDo=     1
 LinEq1:  Iter= 19 NonCon=     1 RMS=4.32D-09 Max=1.21D-07 NDo=     1
 LinEq1:  Iter= 20 NonCon=     1 RMS=2.02D-09 Max=5.70D-08 NDo=     1
 LinEq1:  Iter= 21 NonCon=     1 RMS=7.83D-10 Max=2.38D-08 NDo=     1
 LinEq1:  Iter= 22 NonCon=     1 RMS=3.20D-10 Max=8.92D-09 NDo=     1
 LinEq1:  Iter= 23 NonCon=     1 RMS=9.60D-11 Max=4.04D-09 NDo=     1
 LinEq1:  Iter= 24 NonCon=     0 RMS=3.21D-11 Max=8.95D-10 NDo=     1
 Linear equations converged to 1.000D-10 1.000D-09 after    24 iterations.
 End of Minotr F.D. properties file   721 does not exist.
 End of Minotr F.D. properties file   722 does not exist.
 End of Minotr F.D. properties file   788 does not exist.

 **********************************************************************

            Population analysis using the SCF density.

 **********************************************************************

 Orbital symmetries:
       Occupied  (A) (A) (A) (A) (A) (A) (A) (A) (A) (A) (A) (A)
                 (A) (A) (A) (A) (A) (A) (A) (A) (A) (A) (A) (A)
                 (A) (A) (A) (A) (A) (A) (A) (A) (A) (A) (A) (A)
                 (A) (A) (A) (A) (A) (A) (A) (A) (A) (A) (A) (A)
                 (A) (A) (A) (A) (A) (A) (A) (A) (A) (A) (A)
       Virtual   (A) (A) (A) (A) (A) (A) (A) (A) (A) (A) (A) (A)
                 (A) (A) (A) (A) (A) (A) (A) (A) (A) (A) (A) (A)
                 (A) (A) (A) (A) (A) (A) (A) (A) (A) (A) (A) (A)
                 (A) (A) (A) (A) (A) (A) (A) (A) (A) (A) (A) (A)
                 (A) (A) (A) (A) (A) (A) (A) (A) (A) (A) (A) (A)
                 (A) (A) (A) (A) (A) (A) (A) (A) (A) (A) (A) (A)
                 (A) (A) (A) (A) (A) (A) (A) (A) (A) (A) (A) (A)
                 (A) (A) (A) (A) (A) (A) (A) (A) (A) (A) (A) (A)
                 (A) (A) (A) (A) (A) (A) (A) (A) (A) (A) (A) (A)
                 (A) (A) (A) (A) (A) (A) (A) (A) (A) (A) (A) (A)
                 (A) (A) (A) (A) (A) (A) (A) (A) (A) (A) (A) (A)
                 (A) (A) (A) (A) (A) (A) (A) (A) (A) (A) (A) (A)
                 (A) (A) (A) (A) (A) (A) (A) (A) (A) (A) (A) (A)
                 (A) (A) (A) (A) (A) (A) (A) (A) (A) (A) (A) (A)
                 (A) (A) (A) (A) (A) (A) (A) (A) (A) (A) (A) (A)
                 (A) (A) (A) (A) (A) (A) (A) (A) (A) (A) (A) (A)
                 (A) (A) (A) (A) (A) (A) (A) (A) (A) (A) (A) (A)
                 (A) (A) (A) (A) (A) (A) (A) (A) (A) (A) (A) (A)
                 (A) (A) (A) (A) (A) (A) (A) (A) (A) (A) (A) (A)
                 (A) (A) (A) (A) (A) (A) (A) (A) (A) (A) (A) (A)
                 (A) (A) (A) (A) (A) (A) (A) (A) (A) (A) (A) (A)
                 (A) (A) (A) (A) (A) (A) (A) (A) (A) (A) (A) (A)
                 (A) (A) (A) (A) (A) (A) (A) (A) (A) (A) (A) (A)
                 (A) (A) (A) (A) (A) (A) (A) (A) (A) (A) (A) (A)
                 (A) (A) (A) (A) (A) (A) (A) (A) (A) (A) (A) (A)
                 (A) (A) (A) (A) (A) (A) (A) (A) (A) (A) (A) (A)
                 (A) (A) (A) (A) (A) (A) (A) (A) (A) (A) (A) (A)
                 (A) (A) (A) (A) (A) (A) (A) (A) (A) (A) (A) (A)
                 (A) (A) (A) (A) (A) (A) (A) (A) (A) (A) (A) (A)
                 (A) (A) (A) (A) (A) (A) (A) (A) (A) (A) (A) (A)
                 (A) (A) (A) (A) (A) (A) (A) (A) (A) (A) (A) (A)
                 (A) (A) (A) (A) (A) (A) (A) (A) (A) (A) (A) (A)
                 (A) (A) (A) (A) (A) (A) (A) (A) (A) (A) (A) (A)
 The electronic state is 1-A.
 Alpha  occ. eigenvalues --  -19.30103 -19.28165 -19.23877 -14.45541 -10.38792
 Alpha  occ. eigenvalues --  -10.38041 -10.37875 -10.33981 -10.32241 -10.32178
 Alpha  occ. eigenvalues --  -10.31284 -10.31152 -10.31080 -10.30038 -10.29384
 Alpha  occ. eigenvalues --  -10.26409  -1.19473  -1.17945  -1.11777  -1.06026
 Alpha  occ. eigenvalues --   -0.97967  -0.89769  -0.86741  -0.86224  -0.82639
 Alpha  occ. eigenvalues --   -0.82335  -0.78130  -0.74444  -0.72056  -0.69145
 Alpha  occ. eigenvalues --   -0.65502  -0.63957  -0.61968  -0.60270  -0.59482
 Alpha  occ. eigenvalues --   -0.58125  -0.57399  -0.55913  -0.55221  -0.54260
 Alpha  occ. eigenvalues --   -0.52660  -0.52502  -0.51007  -0.49760  -0.49379
 Alpha  occ. eigenvalues --   -0.49304  -0.48815  -0.47576  -0.46909  -0.46200
 Alpha  occ. eigenvalues --   -0.45712  -0.43797  -0.43082  -0.40936  -0.40364
 Alpha  occ. eigenvalues --   -0.35463  -0.32885  -0.32070  -0.25602
 Alpha virt. eigenvalues --   -0.01556   0.03874   0.04522   0.04902   0.05465
 Alpha virt. eigenvalues --    0.05677   0.05895   0.06740   0.07483   0.07601
 Alpha virt. eigenvalues --    0.07883   0.08448   0.08678   0.09350   0.09465
 Alpha virt. eigenvalues --    0.10037   0.10131   0.10663   0.11077   0.11947
 Alpha virt. eigenvalues --    0.12167   0.13206   0.13710   0.14353   0.15027
 Alpha virt. eigenvalues --    0.15488   0.15682   0.15980   0.16274   0.16654
 Alpha virt. eigenvalues --    0.16788   0.17158   0.17463   0.17768   0.17970
 Alpha virt. eigenvalues --    0.18307   0.18601   0.18758   0.18958   0.19451
 Alpha virt. eigenvalues --    0.19999   0.20185   0.20588   0.20801   0.20937
 Alpha virt. eigenvalues --    0.21685   0.21798   0.21883   0.22498   0.23137
 Alpha virt. eigenvalues --    0.23348   0.23834   0.23898   0.24351   0.24546
 Alpha virt. eigenvalues --    0.24651   0.24973   0.25580   0.26221   0.27264
 Alpha virt. eigenvalues --    0.27832   0.28213   0.28397   0.28930   0.29198
 Alpha virt. eigenvalues --    0.29936   0.30150   0.30415   0.31122   0.31794
 Alpha virt. eigenvalues --    0.32317   0.32770   0.32971   0.33482   0.34162
 Alpha virt. eigenvalues --    0.34323   0.35035   0.35353   0.35533   0.35861
 Alpha virt. eigenvalues --    0.36208   0.36828   0.36985   0.37421   0.37838
 Alpha virt. eigenvalues --    0.38059   0.38334   0.38842   0.39353   0.39644
 Alpha virt. eigenvalues --    0.39894   0.40321   0.40711   0.41392   0.42402
 Alpha virt. eigenvalues --    0.42619   0.43045   0.43697   0.44386   0.45207
 Alpha virt. eigenvalues --    0.45767   0.46840   0.47331   0.48643   0.49800
 Alpha virt. eigenvalues --    0.50461   0.51090   0.51789   0.52387   0.53040
 Alpha virt. eigenvalues --    0.54074   0.55011   0.55392   0.58139   0.58786
 Alpha virt. eigenvalues --    0.59819   0.60546   0.61169   0.61796   0.64304
 Alpha virt. eigenvalues --    0.65179   0.65589   0.66483   0.67545   0.68035
 Alpha virt. eigenvalues --    0.68686   0.69031   0.69624   0.70539   0.71060
 Alpha virt. eigenvalues --    0.71451   0.71744   0.72564   0.72943   0.73703
 Alpha virt. eigenvalues --    0.74026   0.74493   0.75456   0.75939   0.75988
 Alpha virt. eigenvalues --    0.77165   0.78173   0.78872   0.79518   0.80318
 Alpha virt. eigenvalues --    0.80525   0.81399   0.82534   0.83136   0.83817
 Alpha virt. eigenvalues --    0.84881   0.85566   0.86653   0.88595   0.88729
 Alpha virt. eigenvalues --    0.90646   0.92139   0.94662   0.95518   0.96969
 Alpha virt. eigenvalues --    0.97435   0.97908   0.98896   0.99428   1.00830
 Alpha virt. eigenvalues --    1.02342   1.02436   1.03691   1.05275   1.06326
 Alpha virt. eigenvalues --    1.07895   1.08413   1.09393   1.09519   1.09972
 Alpha virt. eigenvalues --    1.11100   1.11575   1.13561   1.14388   1.15516
 Alpha virt. eigenvalues --    1.17182   1.17567   1.18372   1.20120   1.20987
 Alpha virt. eigenvalues --    1.22515   1.23789   1.25487   1.26506   1.27883
 Alpha virt. eigenvalues --    1.29668   1.30366   1.32606   1.34799   1.36421
 Alpha virt. eigenvalues --    1.36681   1.37431   1.38805   1.39790   1.42296
 Alpha virt. eigenvalues --    1.45486   1.46988   1.48887   1.51478   1.52312
 Alpha virt. eigenvalues --    1.52606   1.53806   1.54105   1.55322   1.57838
 Alpha virt. eigenvalues --    1.58462   1.59425   1.60567   1.62834   1.63333
 Alpha virt. eigenvalues --    1.63567   1.64549   1.64939   1.65359   1.65855
 Alpha virt. eigenvalues --    1.66615   1.67991   1.68594   1.70296   1.71496
 Alpha virt. eigenvalues --    1.74673   1.75368   1.76002   1.77062   1.77717
 Alpha virt. eigenvalues --    1.78883   1.79099   1.80245   1.81241   1.81648
 Alpha virt. eigenvalues --    1.82491   1.84586   1.85327   1.87444   1.88211
 Alpha virt. eigenvalues --    1.90142   1.91265   1.92455   1.93937   1.95273
 Alpha virt. eigenvalues --    1.96472   1.97916   1.98884   2.00592   2.03313
 Alpha virt. eigenvalues --    2.04238   2.04680   2.07128   2.07313   2.07826
 Alpha virt. eigenvalues --    2.08486   2.09857   2.12252   2.13935   2.14741
 Alpha virt. eigenvalues --    2.16238   2.18167   2.19083   2.19832   2.20987
 Alpha virt. eigenvalues --    2.23198   2.24442   2.25898   2.27185   2.28140
 Alpha virt. eigenvalues --    2.28679   2.31082   2.34571   2.36734   2.38936
 Alpha virt. eigenvalues --    2.40880   2.42473   2.45296   2.51206   2.51966
 Alpha virt. eigenvalues --    2.52877   2.55218   2.55900   2.57385   2.57674
 Alpha virt. eigenvalues --    2.58266   2.59475   2.61159   2.61505   2.62817
 Alpha virt. eigenvalues --    2.64517   2.66824   2.67219   2.67768   2.70205
 Alpha virt. eigenvalues --    2.71120   2.73724   2.74430   2.74930   2.76615
 Alpha virt. eigenvalues --    2.79148   2.80477   2.81112   2.81822   2.82434
 Alpha virt. eigenvalues --    2.83045   2.84177   2.85950   2.86654   2.88412
 Alpha virt. eigenvalues --    2.90953   2.92135   2.93023   2.95279   2.95995
 Alpha virt. eigenvalues --    2.98741   2.99971   3.02372   3.03180   3.05460
 Alpha virt. eigenvalues --    3.09246   3.11201   3.13283   3.13758   3.16148
 Alpha virt. eigenvalues --    3.17147   3.17672   3.18175   3.19333   3.20584
 Alpha virt. eigenvalues --    3.23798   3.27650   3.28770   3.30437   3.32410
 Alpha virt. eigenvalues --    3.32658   3.35363   3.37917   3.41380   3.45817
 Alpha virt. eigenvalues --    3.49591   3.53073   3.57651   3.59469   3.65306
 Alpha virt. eigenvalues --    3.68831   3.70955   3.74203   3.75510   3.78096
 Alpha virt. eigenvalues --    3.84323   3.84875   3.86801   3.88461   3.91332
 Alpha virt. eigenvalues --    3.93392   3.96452   3.97043   4.02487   4.12899
 Alpha virt. eigenvalues --    4.15248   4.17667   4.19717   4.24310   4.28239
 Alpha virt. eigenvalues --    4.31266   4.36455   4.54097   4.93122   5.00375
 Alpha virt. eigenvalues --    5.12134   5.12981   5.19025   5.19791   5.42889
 Alpha virt. eigenvalues --    5.50550   5.56734   5.81556   5.85988   5.94178
 Alpha virt. eigenvalues --   23.70542  23.95896  24.01946  24.02440  24.05694
 Alpha virt. eigenvalues --   24.07725  24.09285  24.10371  24.15777  24.23039
 Alpha virt. eigenvalues --   24.27329  24.29728  35.72541  50.08553  50.09793
 Alpha virt. eigenvalues --   50.12803
          Condensed to atoms (all electrons):
               1          2          3          4          5          6
     1  C    5.176723   0.389808   0.382201  -0.063929   0.000787   0.229800
     2  H    0.389808   0.476767  -0.026761   0.006400  -0.006361  -0.051461
     3  H    0.382201  -0.026761   0.548659  -0.006785   0.001068  -0.064119
     4  C   -0.063929   0.006400  -0.006785   5.162840   0.407932   0.237528
     5  H    0.000787  -0.006361   0.001068   0.407932   0.568150  -0.056898
     6  N    0.229800  -0.051461  -0.064119   0.237528  -0.056898   6.901030
     7  H    0.441983  -0.010936  -0.048964   0.006471   0.001164  -0.046447
     8  H   -0.003188   0.003894  -0.002157   0.393719  -0.031333  -0.094933
     9  H    0.002865  -0.003608   0.001940   0.431640  -0.065529  -0.057278
    10  C   -0.276448   0.032646   0.016702  -0.040501  -0.030816   0.313470
    11  H    0.006724  -0.000479   0.000862  -0.025305   0.006981  -0.064707
    12  C    0.389624   0.016134  -0.016874  -0.187511   0.011294  -0.311661
    13  C   -0.140231  -0.018071   0.031646  -0.029125   0.012486  -0.084636
    14  H    0.016285  -0.000934  -0.003401  -0.011915   0.003002  -0.039685
    15  O   -0.003652  -0.000187  -0.000209  -0.001410  -0.000070   0.000584
    16  C   -0.146252  -0.010278   0.020634   0.039276   0.004611  -0.042452
    17  C   -0.020908  -0.001306   0.001217   0.004250   0.000813  -0.018476
    18  C    0.035766   0.001233  -0.006137   0.010453  -0.001063   0.049719
    19  O    0.000021  -0.000001   0.000042  -0.000165   0.000002  -0.000192
    20  C   -0.006465  -0.000361  -0.001145  -0.000891   0.000193  -0.011626
    21  C    0.023979   0.001829   0.000321   0.000364  -0.000861   0.041315
    22  H    0.004589   0.000461  -0.005878   0.000361  -0.000788   0.009797
    23  H   -0.000572  -0.000066   0.000019   0.000215  -0.000012   0.000842
    24  H   -0.000094  -0.000005  -0.000005  -0.000037   0.000001  -0.000043
    25  C    0.002953   0.000209   0.000101   0.000392  -0.000064   0.003238
    26  H   -0.000972  -0.000086   0.000380   0.000015   0.000046  -0.000751
    27  O    0.000002   0.000000   0.000000   0.000000   0.000000   0.000001
    28  C    0.000060   0.000004  -0.000002  -0.000002  -0.000003   0.000092
    29  H    0.000007   0.000001  -0.000001  -0.000003   0.000000   0.000006
    30  H    0.000002   0.000000   0.000000  -0.000001   0.000000   0.000002
    31  H    0.000008   0.000000  -0.000005   0.000005   0.000000   0.000002
               7          8          9         10         11         12
     1  C    0.441983  -0.003188   0.002865  -0.276448   0.006724   0.389624
     2  H   -0.010936   0.003894  -0.003608   0.032646  -0.000479   0.016134
     3  H   -0.048964  -0.002157   0.001940   0.016702   0.000862  -0.016874
     4  C    0.006471   0.393719   0.431640  -0.040501  -0.025305  -0.187511
     5  H    0.001164  -0.031333  -0.065529  -0.030816   0.006981   0.011294
     6  N   -0.046447  -0.094933  -0.057278   0.313470  -0.064707  -0.311661
     7  H    0.517270  -0.001220  -0.000264  -0.019265  -0.004087   0.037445
     8  H   -0.001220   0.541981  -0.021880   0.088868  -0.009457   0.002010
     9  H   -0.000264  -0.021880   0.559589  -0.010033  -0.001230  -0.007729
    10  C   -0.019265   0.088868  -0.010033   8.182189   0.230784  -1.656663
    11  H   -0.004087  -0.009457  -0.001230   0.230784   0.507128   0.141638
    12  C    0.037445   0.002010  -0.007729  -1.656663   0.141638  17.031495
    13  C   -0.058076  -0.013167  -0.005750  -1.235432   0.061698   0.743603
    14  H   -0.006965  -0.002469  -0.001913  -0.221191   0.021298   0.622671
    15  O   -0.000808   0.001625  -0.000033  -0.009127  -0.006608  -0.638234
    16  C   -0.004868  -0.004705   0.000912   1.045883   0.019034  -5.670714
    17  C   -0.000562  -0.001698   0.000167   0.028988   0.034769  -1.507748
    18  C    0.005588   0.002293  -0.000957   0.147920  -0.066320  -1.899394
    19  O   -0.000088   0.000070  -0.000008  -0.004085  -0.001235  -0.014547
    20  C    0.000262  -0.001205   0.000127  -0.200890   0.024290  -1.676201
    21  C   -0.000026   0.004281  -0.000720   0.230534  -0.048355   0.959292
    22  H    0.001587   0.000534   0.000179  -0.028095  -0.004414  -0.010574
    23  H    0.000227   0.000089   0.000018   0.008055  -0.002238  -0.011093
    24  H    0.000007   0.000004   0.000000  -0.001984   0.000024  -0.013544
    25  C   -0.000110   0.000312  -0.000039   0.041128  -0.006394   0.014640
    26  H    0.000012   0.000000  -0.000007   0.008699   0.000418  -0.021784
    27  O   -0.000001  -0.000001   0.000000  -0.000262  -0.000004   0.000434
    28  C   -0.000002   0.000017  -0.000001   0.000529  -0.000399   0.006585
    29  H    0.000000   0.000001   0.000000  -0.000047  -0.000018   0.000753
    30  H    0.000000   0.000001   0.000000  -0.000013  -0.000020   0.000206
    31  H   -0.000001  -0.000002   0.000000  -0.000134   0.000019  -0.000201
              13         14         15         16         17         18
     1  C   -0.140231   0.016285  -0.003652  -0.146252  -0.020908   0.035766
     2  H   -0.018071  -0.000934  -0.000187  -0.010278  -0.001306   0.001233
     3  H    0.031646  -0.003401  -0.000209   0.020634   0.001217  -0.006137
     4  C   -0.029125  -0.011915  -0.001410   0.039276   0.004250   0.010453
     5  H    0.012486   0.003002  -0.000070   0.004611   0.000813  -0.001063
     6  N   -0.084636  -0.039685   0.000584  -0.042452  -0.018476   0.049719
     7  H   -0.058076  -0.006965  -0.000808  -0.004868  -0.000562   0.005588
     8  H   -0.013167  -0.002469   0.001625  -0.004705  -0.001698   0.002293
     9  H   -0.005750  -0.001913  -0.000033   0.000912   0.000167  -0.000957
    10  C   -1.235432  -0.221191  -0.009127   1.045883   0.028988   0.147920
    11  H    0.061698   0.021298  -0.006608   0.019034   0.034769  -0.066320
    12  C    0.743603   0.622671  -0.638234  -5.670714  -1.507748  -1.899394
    13  C   15.554322   0.084318   0.724785  -2.191909  -0.442663  -2.383891
    14  H    0.084318   0.511296   0.009058  -0.022900   0.031587  -0.154393
    15  O    0.724785   0.009058   8.200521   0.058659   0.160336  -0.147680
    16  C   -2.191909  -0.022900   0.058659  17.922185   1.643761  -1.898285
    17  C   -0.442663   0.031587   0.160336   1.643761  19.161249  -7.150557
    18  C   -2.383891  -0.154393  -0.147680  -1.898285  -7.150557  18.982321
    19  O   -0.060334  -0.000702  -0.030434   0.120128   0.409424   0.028521
    20  C   -2.781881   0.024187  -0.099219  -3.314630  -8.146726   6.623312
    21  C   -0.749807  -0.071405   0.007746  -1.265191   2.272922  -4.089326
    22  H   -0.042373  -0.009684  -0.003542  -0.319138  -0.106603   0.607757
    23  H   -0.021738  -0.002172   0.091125  -0.179593   0.115672  -0.004091
    24  H   -0.026683  -0.000009  -0.000378  -0.111385  -0.238006   0.092973
    25  C   -1.047254  -0.010238   0.006981  -0.900230  -0.485522  -1.656483
    26  H   -0.000081  -0.000033   0.000619   0.119778   0.067878  -0.011102
    27  O   -0.004974   0.000027  -0.000020   0.011269   0.045981  -0.095556
    28  C   -0.017581  -0.000371   0.000062  -0.130925   0.175735  -0.436558
    29  H    0.000416  -0.000019   0.000002   0.001042   0.004157  -0.022516
    30  H   -0.001033  -0.000017  -0.000001  -0.008642   0.002620  -0.012264
    31  H   -0.000172   0.000054  -0.000006   0.002756  -0.009604   0.002545
              19         20         21         22         23         24
     1  C    0.000021  -0.006465   0.023979   0.004589  -0.000572  -0.000094
     2  H   -0.000001  -0.000361   0.001829   0.000461  -0.000066  -0.000005
     3  H    0.000042  -0.001145   0.000321  -0.005878   0.000019  -0.000005
     4  C   -0.000165  -0.000891   0.000364   0.000361   0.000215  -0.000037
     5  H    0.000002   0.000193  -0.000861  -0.000788  -0.000012   0.000001
     6  N   -0.000192  -0.011626   0.041315   0.009797   0.000842  -0.000043
     7  H   -0.000088   0.000262  -0.000026   0.001587   0.000227   0.000007
     8  H    0.000070  -0.001205   0.004281   0.000534   0.000089   0.000004
     9  H   -0.000008   0.000127  -0.000720   0.000179   0.000018   0.000000
    10  C   -0.004085  -0.200890   0.230534  -0.028095   0.008055  -0.001984
    11  H   -0.001235   0.024290  -0.048355  -0.004414  -0.002238   0.000024
    12  C   -0.014547  -1.676201   0.959292  -0.010574  -0.011093  -0.013544
    13  C   -0.060334  -2.781881  -0.749807  -0.042373  -0.021738  -0.026683
    14  H   -0.000702   0.024187  -0.071405  -0.009684  -0.002172  -0.000009
    15  O   -0.030434  -0.099219   0.007746  -0.003542   0.091125  -0.000378
    16  C    0.120128  -3.314630  -1.265191  -0.319138  -0.179593  -0.111385
    17  C    0.409424  -8.146726   2.272922  -0.106603   0.115672  -0.238006
    18  C    0.028521   6.623312  -4.089326   0.607757  -0.004091   0.092973
    19  O    8.091564  -0.544463   0.033827  -0.000060   0.237917  -0.027008
    20  C   -0.544463  25.774217  -8.299422   0.122687   0.061864   0.883582
    21  C    0.033827  -8.299422  15.898401  -0.006793   0.020860  -0.140662
    22  H   -0.000060   0.122687  -0.006793   0.460103   0.000003   0.002159
    23  H    0.237917   0.061864   0.020860   0.000003   0.363422   0.003029
    24  H   -0.027008   0.883582  -0.140662   0.002159   0.003029   0.445482
    25  C    0.040898  -1.147404   0.651039   0.097011  -0.005118  -0.116774
    26  H   -0.000355  -0.054862   0.453874  -0.020945   0.000394  -0.000342
    27  O   -0.001495  -0.762229   0.335036  -0.000223  -0.000276  -0.021437
    28  C    0.000108  -0.007624  -0.136859   0.010324   0.000640   0.001292
    29  H   -0.000005  -0.020521   0.022952   0.001127  -0.000035  -0.000673
    30  H    0.000045   0.010669  -0.001080   0.000521   0.000067   0.000258
    31  H    0.000033  -0.006722   0.008318   0.001138  -0.000024  -0.000640
              25         26         27         28         29         30
     1  C    0.002953  -0.000972   0.000002   0.000060   0.000007   0.000002
     2  H    0.000209  -0.000086   0.000000   0.000004   0.000001   0.000000
     3  H    0.000101   0.000380   0.000000  -0.000002  -0.000001   0.000000
     4  C    0.000392   0.000015   0.000000  -0.000002  -0.000003  -0.000001
     5  H   -0.000064   0.000046   0.000000  -0.000003   0.000000   0.000000
     6  N    0.003238  -0.000751   0.000001   0.000092   0.000006   0.000002
     7  H   -0.000110   0.000012  -0.000001  -0.000002   0.000000   0.000000
     8  H    0.000312   0.000000  -0.000001   0.000017   0.000001   0.000001
     9  H   -0.000039  -0.000007   0.000000  -0.000001   0.000000   0.000000
    10  C    0.041128   0.008699  -0.000262   0.000529  -0.000047  -0.000013
    11  H   -0.006394   0.000418  -0.000004  -0.000399  -0.000018  -0.000020
    12  C    0.014640  -0.021784   0.000434   0.006585   0.000753   0.000206
    13  C   -1.047254  -0.000081  -0.004974  -0.017581   0.000416  -0.001033
    14  H   -0.010238  -0.000033   0.000027  -0.000371  -0.000019  -0.000017
    15  O    0.006981   0.000619  -0.000020   0.000062   0.000002  -0.000001
    16  C   -0.900230   0.119778   0.011269  -0.130925   0.001042  -0.008642
    17  C   -0.485522   0.067878   0.045981   0.175735   0.004157   0.002620
    18  C   -1.656483  -0.011102  -0.095556  -0.436558  -0.022516  -0.012264
    19  O    0.040898  -0.000355  -0.001495   0.000108  -0.000005   0.000045
    20  C   -1.147404  -0.054862  -0.762229  -0.007624  -0.020521   0.010669
    21  C    0.651039   0.453874   0.335036  -0.136859   0.022952  -0.001080
    22  H    0.097011  -0.020945  -0.000223   0.010324   0.001127   0.000521
    23  H   -0.005118   0.000394  -0.000276   0.000640  -0.000035   0.000067
    24  H   -0.116774  -0.000342  -0.021437   0.001292  -0.000673   0.000258
    25  C   10.685830  -0.210099   0.392670   0.264194  -0.008600   0.042905
    26  H   -0.210099   0.455205  -0.018314  -0.021597  -0.010068   0.001937
    27  O    0.392670  -0.018314   8.190850   0.191807  -0.031349  -0.059411
    28  C    0.264194  -0.021597   0.191807   5.299036   0.405734   0.393380
    29  H   -0.008600  -0.010068  -0.031349   0.405734   0.549817  -0.018637
    30  H    0.042905   0.001937  -0.059411   0.393380  -0.018637   0.436146
    31  H   -0.015958  -0.009685  -0.030966   0.404795  -0.056654  -0.018373
              31
     1  C    0.000008
     2  H    0.000000
     3  H   -0.000005
     4  C    0.000005
     5  H    0.000000
     6  N    0.000002
     7  H   -0.000001
     8  H   -0.000002
     9  H    0.000000
    10  C   -0.000134
    11  H    0.000019
    12  C   -0.000201
    13  C   -0.000172
    14  H    0.000054
    15  O   -0.000006
    16  C    0.002756
    17  C   -0.009604
    18  C    0.002545
    19  O    0.000033
    20  C   -0.006722
    21  C    0.008318
    22  H    0.001138
    23  H   -0.000024
    24  H   -0.000640
    25  C   -0.015958
    26  H   -0.009685
    27  O   -0.030966
    28  C    0.404795
    29  H   -0.056654
    30  H   -0.018373
    31  H    0.545791
 Mulliken charges:
               1
     1  C   -0.441476
     2  H    0.201517
     3  H    0.176653
     4  C   -0.334281
     5  H    0.175268
     6  N    0.157939
     7  H    0.190673
     8  H    0.147715
     9  H    0.179543
    10  C   -0.641409
    11  H    0.185605
    12  C   -0.333350
    13  C    0.143589
    14  H    0.236633
    15  O   -0.320482
    16  C    1.212170
    17  C   -0.031148
    18  C   -0.553830
    19  O   -0.277423
    20  C   -0.440901
    21  C   -0.156382
    22  H    0.238770
    23  H    0.322572
    24  H    0.270898
    25  C   -0.634215
    26  H    0.271828
    27  O   -0.141559
    28  C   -0.402466
    29  H    0.183131
    30  H    0.230736
    31  H    0.183682
 Sum of Mulliken charges =   0.00000
 Mulliken charges with hydrogens summed into heavy atoms:
               1
     1  C    0.127366
     4  C    0.168245
     6  N    0.157939
    10  C   -0.455803
    12  C   -0.096717
    13  C    0.143589
    15  O   -0.320482
    16  C    1.212170
    17  C   -0.031148
    18  C   -0.315060
    19  O    0.045149
    20  C   -0.170003
    21  C    0.115446
    25  C   -0.634215
    27  O   -0.141559
    28  C    0.195082
 Electronic spatial extent (au):  <R**2>=           5520.7221
 Charge=              0.0000 electrons
 Dipole moment (field-independent basis, Debye):
    X=              1.3181    Y=             -7.9679    Z=              0.1464  Tot=              8.0776
 Quadrupole moment (field-independent basis, Debye-Ang):
   XX=            -66.9665   YY=            -99.7081   ZZ=            -92.8631
   XY=              2.7945   XZ=              3.2343   YZ=              0.4571
 Traceless Quadrupole moment (field-independent basis, Debye-Ang):
   XX=             19.5461   YY=            -13.1956   ZZ=             -6.3505
   XY=              2.7945   XZ=              3.2343   YZ=              0.4571
 Octapole moment (field-independent basis, Debye-Ang**2):
  XXX=             58.2344  YYY=            -47.8403  ZZZ=              5.2595  XYY=            -30.5050
  XXY=            -93.1435  XXZ=              3.7875  XZZ=             18.4717  YZZ=             -1.2467
  YYZ=             -0.6044  XYZ=             -1.3750
 Hexadecapole moment (field-independent basis, Debye-Ang**3):
 XXXX=          -4856.7867 YYYY=          -1206.4015 ZZZZ=           -319.3780 XXXY=             83.6512
 XXXZ=             28.2407 YYYX=             68.5762 YYYZ=              1.4736 ZZZX=              9.8702
 ZZZY=             -3.9152 XXYY=          -1029.8911 XXZZ=           -972.4417 YYZZ=           -250.9682
 XXYZ=              0.1079 YYXZ=              7.5642 ZZXY=             -2.7666
 N-N= 1.047418181880D+03 E-N=-3.837606270290D+03  KE= 7.435994731156D+02
 D1PCM: PCM CHGder 1st derivatives, ID1Alg=3 FixD1E=F DoIter=F DoCFld=F I1PDM=6.
 Calling FoFJK, ICntrl=  10005127 FMM=F ISym2X=0 I1Cent= 0 IOpClX= 0 NMat=1 NMatS=1 NMatT=0.
 ***** Axes restored to original set *****
 -------------------------------------------------------------------
 Center     Atomic                   Forces (Hartrees/Bohr)
 Number     Number              X              Y              Z
 -------------------------------------------------------------------
      1        6           0.001997298    0.001723548    0.002857951
      2        1          -0.000809925   -0.000345479    0.000008972
      3        1           0.000077844   -0.000449466   -0.000820011
      4        6           0.000590815   -0.000547675   -0.004080844
      5        1          -0.000345568   -0.000543009    0.001412510
      6        7          -0.011933185   -0.004562338    0.003267742
      7        1           0.000011076    0.000143216   -0.000836119
      8        1           0.000016718    0.000143382    0.000288836
      9        1          -0.000709838    0.000502776    0.001174322
     10        6           0.012189490    0.004259509   -0.008907281
     11        1           0.000633206    0.000602858   -0.000733850
     12        6          -0.005418472    0.003643622    0.005491722
     13        6           0.015088948    0.004452100   -0.001134432
     14        1          -0.000145691    0.000492268   -0.000078559
     15        8          -0.006913458   -0.010474638    0.002201088
     16        6          -0.006022486   -0.000541134    0.000240402
     17        6           0.001356668    0.006614796   -0.000908794
     18        6           0.001685686   -0.001755932    0.000247140
     19        8          -0.002028819   -0.005103811    0.000762756
     20        6          -0.000225151   -0.000723913    0.000131115
     21        6          -0.002288530    0.000047609    0.000189759
     22        1           0.000514098   -0.000362809   -0.000128621
     23        1           0.003650683    0.001023511   -0.000400231
     24        1          -0.000669336   -0.000313965    0.000030766
     25        6           0.000429540    0.001669268   -0.000218014
     26        1          -0.000038779   -0.000091142   -0.000029020
     27        8           0.000680572   -0.003971430    0.000467961
     28        6          -0.001193759    0.005035463   -0.000620910
     29        1          -0.000244555   -0.000349822    0.000586069
     30        1           0.000320642    0.000242618   -0.000033300
     31        1          -0.000255732   -0.000459980   -0.000429126
 -------------------------------------------------------------------
 Cartesian Forces:  Max     0.015088948 RMS     0.003491718

 GradGradGradGradGradGradGradGradGradGradGradGradGradGradGradGradGradGrad
 Berny optimization.
 FormGI is forming the generalized inverse of G from B-inverse, IUseBI=4.
 Internal  Forces:  Max     0.014818675 RMS     0.002324822
 Search for a local minimum.
 Step number   1 out of a maximum of  150
 All quantities printed in internal units (Hartrees-Bohrs-Radians)
 Mixed Optimization -- RFO/linear search
 Second derivative matrix not updated -- first step.
 ITU=  0
     Eigenvalues ---    0.00951   0.00983   0.01282   0.01403   0.01621
     Eigenvalues ---    0.01670   0.01858   0.01885   0.01892   0.01932
     Eigenvalues ---    0.02085   0.02104   0.02153   0.02155   0.02164
     Eigenvalues ---    0.02199   0.02207   0.02268   0.02277   0.02333
     Eigenvalues ---    0.02444   0.02617   0.07441   0.07539   0.07575
     Eigenvalues ---    0.07639   0.10096   0.10673   0.15752   0.16000
     Eigenvalues ---    0.16000   0.16000   0.16000   0.16000   0.16000
     Eigenvalues ---    0.16000   0.16000   0.16000   0.16000   0.16000
     Eigenvalues ---    0.16000   0.16000   0.16000   0.22000   0.22059
     Eigenvalues ---    0.22372   0.23486   0.24597   0.24939   0.24995
     Eigenvalues ---    0.25000   0.25000   0.25000   0.25000   0.25000
     Eigenvalues ---    0.25000   0.34013   0.34019   0.34468   0.34482
     Eigenvalues ---    0.34526   0.34531   0.34817   0.34884   0.34976
     Eigenvalues ---    0.34979   0.35391   0.35480   0.35658   0.35785
     Eigenvalues ---    0.36842   0.37467   0.37777   0.39660   0.41900
     Eigenvalues ---    0.43163   0.44739   0.44900   0.45330   0.46814
     Eigenvalues ---    0.48065   0.48817   0.51955   0.52518   0.54690
     Eigenvalues ---    0.59501   0.65558
 RFO step:  Lambda=-2.49018770D-03 EMin= 9.50767704D-03
 Linear search not attempted -- first point.
 Iteration  1 RMS(Cart)=  0.06603066 RMS(Int)=  0.00073374
 Iteration  2 RMS(Cart)=  0.00163824 RMS(Int)=  0.00006973
 Iteration  3 RMS(Cart)=  0.00000034 RMS(Int)=  0.00006973
 Variable       Old X    -DE/DX   Delta X   Delta X   Delta X     New X
                                 (Linear)    (Quad)   (Total)
    R1        2.05713  -0.00082   0.00000  -0.00233  -0.00233   2.05480
    R2        2.06451  -0.00074   0.00000  -0.00212  -0.00212   2.06239
    R3        2.75148   0.00199   0.00000   0.00527   0.00527   2.75674
    R4        2.06443  -0.00068   0.00000  -0.00196  -0.00196   2.06248
    R5        2.06548  -0.00096   0.00000  -0.00277  -0.00277   2.06271
    R6        2.74690   0.00092   0.00000   0.00241   0.00241   2.74932
    R7        2.05709  -0.00025   0.00000  -0.00071  -0.00071   2.05637
    R8        2.06524  -0.00088   0.00000  -0.00254  -0.00254   2.06270
    R9        2.51338  -0.01215   0.00000  -0.02033  -0.02033   2.49304
   R10        2.04903   0.00008   0.00000   0.00022   0.00022   2.04925
   R11        2.61869   0.00646   0.00000   0.01337   0.01337   2.63206
   R12        2.76084  -0.00087   0.00000  -0.00234  -0.00234   2.75851
   R13        2.05974   0.00000   0.00000   0.00000   0.00000   2.05974
   R14        2.46796   0.00827   0.00000   0.01257   0.01257   2.48052
   R15        2.67469   0.00438   0.00000   0.01009   0.01009   2.68477
   R16        2.69935  -0.00326   0.00000  -0.00813  -0.00813   2.69122
   R17        2.65548  -0.00150   0.00000  -0.00359  -0.00359   2.65189
   R18        2.55408   0.00426   0.00000   0.00775   0.00775   2.56184
   R19        2.60320   0.00136   0.00000   0.00274   0.00274   2.60594
   R20        2.63269   0.00228   0.00000   0.00485   0.00485   2.63753
   R21        2.05045   0.00018   0.00000   0.00050   0.00050   2.05095
   R22        1.84107   0.00337   0.00000   0.00639   0.00639   1.84745
   R23        2.04619   0.00072   0.00000   0.00200   0.00200   2.04819
   R24        2.64417   0.00159   0.00000   0.00370   0.00370   2.64788
   R25        2.62736  -0.00049   0.00000  -0.00078  -0.00078   2.62658
   R26        2.04420  -0.00008   0.00000  -0.00022  -0.00022   2.04398
   R27        2.57942   0.00081   0.00000   0.00154   0.00154   2.58097
   R28        2.65580   0.00469   0.00000   0.01041   0.01041   2.66621
   R29        2.07309  -0.00071   0.00000  -0.00208  -0.00208   2.07101
   R30        2.05863  -0.00030   0.00000  -0.00085  -0.00085   2.05778
   R31        2.07297  -0.00067   0.00000  -0.00197  -0.00197   2.07101
    A1        1.89964   0.00033   0.00000   0.00126   0.00126   1.90090
    A2        1.90103  -0.00038   0.00000  -0.00301  -0.00302   1.89801
    A3        1.90219   0.00022   0.00000   0.00072   0.00071   1.90290
    A4        1.93254  -0.00055   0.00000  -0.00305  -0.00305   1.92949
    A5        1.90334   0.00068   0.00000   0.00548   0.00548   1.90882
    A6        1.92468  -0.00028   0.00000  -0.00132  -0.00133   1.92335
    A7        1.92275  -0.00156   0.00000  -0.01051  -0.01054   1.91221
    A8        1.90189   0.00079   0.00000   0.00610   0.00611   1.90800
    A9        1.90137   0.00094   0.00000   0.00277   0.00269   1.90406
   A10        1.91660   0.00045   0.00000   0.00432   0.00433   1.92093
   A11        1.91963  -0.00140   0.00000  -0.00924  -0.00928   1.91035
   A12        1.90129   0.00082   0.00000   0.00687   0.00687   1.90817
   A13        2.05031  -0.00028   0.00000  -0.00113  -0.00113   2.04918
   A14        2.11532   0.00104   0.00000   0.00413   0.00413   2.11945
   A15        2.11755  -0.00076   0.00000  -0.00300  -0.00301   2.11454
   A16        2.02243  -0.00011   0.00000  -0.00233  -0.00235   2.02008
   A17        2.20127  -0.00194   0.00000  -0.00874  -0.00876   2.19251
   A18        2.05944   0.00205   0.00000   0.01096   0.01094   2.07038
   A19        2.08233   0.00095   0.00000   0.00652   0.00608   2.08841
   A20        2.09333  -0.00040   0.00000   0.00214   0.00170   2.09503
   A21        2.08443  -0.00030   0.00000   0.00228   0.00184   2.08627
   A22        1.79127   0.01482   0.00000   0.05860   0.05858   1.84985
   A23        2.24747  -0.00584   0.00000  -0.02327  -0.02329   2.22418
   A24        2.24083  -0.00901   0.00000  -0.03596  -0.03596   2.20486
   A25        2.09654  -0.00078   0.00000  -0.00262  -0.00261   2.09392
   A26        2.14364   0.00051   0.00000   0.00248   0.00248   2.14612
   A27        2.04286   0.00027   0.00000   0.00017   0.00017   2.04302
   A28        2.10914  -0.00362   0.00000  -0.01415  -0.01415   2.09498
   A29        2.10676   0.00115   0.00000   0.00415   0.00415   2.11092
   A30        2.06728   0.00247   0.00000   0.01000   0.01000   2.07727
   A31        2.13374  -0.00002   0.00000  -0.00055  -0.00055   2.13318
   A32        2.07764  -0.00060   0.00000  -0.00347  -0.00347   2.07416
   A33        2.07181   0.00062   0.00000   0.00403   0.00403   2.07584
   A34        1.89330  -0.00326   0.00000  -0.02004  -0.02004   1.87326
   A35        2.08696   0.00056   0.00000   0.00252   0.00252   2.08947
   A36        2.10637  -0.00076   0.00000  -0.00281  -0.00280   2.10357
   A37        2.08985   0.00020   0.00000   0.00029   0.00029   2.09014
   A38        2.08020   0.00009   0.00000   0.00098   0.00098   2.08117
   A39        2.08021   0.00001   0.00000  -0.00017  -0.00017   2.08003
   A40        2.12277  -0.00009   0.00000  -0.00080  -0.00080   2.12197
   A41        2.09638  -0.00073   0.00000  -0.00192  -0.00191   2.09446
   A42        2.01224   0.00053   0.00000   0.00161   0.00160   2.01385
   A43        2.17456   0.00020   0.00000   0.00032   0.00031   2.17488
   A44        2.05649   0.00042   0.00000   0.00168   0.00168   2.05817
   A45        1.94798  -0.00019   0.00000  -0.00129  -0.00129   1.94669
   A46        1.85503   0.00046   0.00000   0.00303   0.00303   1.85806
   A47        1.94754  -0.00019   0.00000  -0.00127  -0.00127   1.94627
[...]
 Alpha virt. eigenvalues --    2.15613   2.17683   2.19118   2.19889   2.21046
 Alpha virt. eigenvalues --    2.23387   2.24538   2.25569   2.27305   2.28118
 Alpha virt. eigenvalues --    2.28359   2.29996   2.33735   2.36247   2.38427
 Alpha virt. eigenvalues --    2.40854   2.42855   2.44590   2.51310   2.51935
 Alpha virt. eigenvalues --    2.52653   2.55537   2.56020   2.57403   2.57803
 Alpha virt. eigenvalues --    2.58446   2.59479   2.60844   2.61555   2.62613
 Alpha virt. eigenvalues --    2.64379   2.66541   2.66986   2.67447   2.70034
 Alpha virt. eigenvalues --    2.71033   2.73812   2.74590   2.75130   2.76039
 Alpha virt. eigenvalues --    2.78764   2.79582   2.81078   2.81874   2.82857
 Alpha virt. eigenvalues --    2.83492   2.84175   2.86581   2.87231   2.88283
 Alpha virt. eigenvalues --    2.90913   2.91453   2.92128   2.94845   2.96690
 Alpha virt. eigenvalues --    2.98974   2.99278   3.02790   3.03001   3.04906
 Alpha virt. eigenvalues --    3.09754   3.11686   3.13605   3.15136   3.16549
 Alpha virt. eigenvalues --    3.17442   3.17978   3.19681   3.19737   3.20127
 Alpha virt. eigenvalues --    3.23720   3.27194   3.28489   3.30403   3.32045
 Alpha virt. eigenvalues --    3.32260   3.35099   3.36450   3.41718   3.45753
 Alpha virt. eigenvalues --    3.49068   3.53053   3.56914   3.59586   3.65636
 Alpha virt. eigenvalues --    3.68454   3.70765   3.74227   3.75396   3.78453
 Alpha virt. eigenvalues --    3.83890   3.85043   3.87089   3.88932   3.91171
 Alpha virt. eigenvalues --    3.93308   3.96337   3.96605   4.01804   4.13067
 Alpha virt. eigenvalues --    4.15221   4.17934   4.19604   4.24356   4.28185
 Alpha virt. eigenvalues --    4.31611   4.36739   4.53353   4.93214   4.98711
 Alpha virt. eigenvalues --    5.12543   5.13106   5.18874   5.19240   5.39373
 Alpha virt. eigenvalues --    5.50282   5.58006   5.81271   5.85586   5.93261
 Alpha virt. eigenvalues --   23.70875  23.96103  24.02384  24.02985  24.05712
 Alpha virt. eigenvalues --   24.07660  24.08663  24.09197  24.15657  24.22518
 Alpha virt. eigenvalues --   24.24547  24.29524  35.73066  50.08555  50.09513
 Alpha virt. eigenvalues --   50.13495
          Condensed to atoms (all electrons):
               1          2          3          4          5          6
     1  C    5.174172   0.385817   0.384074  -0.066129   0.002020   0.239512
     2  H    0.385817   0.471176  -0.025167   0.005206  -0.005054  -0.050636
     3  H    0.384074  -0.025167   0.541284  -0.008474   0.000723  -0.065635
     4  C   -0.066129   0.005206  -0.008474   5.177536   0.407225   0.247402
     5  H    0.002020  -0.005054   0.000723   0.407225   0.563261  -0.058486
     6  N    0.239512  -0.050636  -0.065635   0.247402  -0.058486   6.903260
     7  H    0.441464  -0.010061  -0.047581   0.009989   0.001117  -0.038311
     8  H   -0.001316   0.004167  -0.002774   0.392659  -0.031006  -0.094694
     9  H   -0.000173  -0.005587   0.002637   0.430458  -0.065225  -0.052895
    10  C   -0.259960   0.037833   0.011728  -0.052201  -0.026575   0.289084
    11  H    0.004347  -0.000466   0.001367  -0.028041   0.007925  -0.071909
    12  C    0.285356   0.004126  -0.000622  -0.154675   0.009841  -0.296762
    13  C   -0.118905  -0.010614   0.027688  -0.059706   0.011916  -0.101908
    14  H    0.011617  -0.001650  -0.003164  -0.011876   0.002979  -0.042612
    15  O   -0.001115   0.000013  -0.000568  -0.002482  -0.000060  -0.003730
    16  C   -0.127055  -0.006157   0.014770   0.018161   0.004774  -0.082463
    17  C   -0.004187   0.000103   0.000407   0.000146   0.000707  -0.020003
    18  C    0.043395   0.000113  -0.003214   0.016563  -0.000429   0.061108
    19  O   -0.000049  -0.000006   0.000012  -0.000166   0.000004  -0.000199
    20  C   -0.006510  -0.000296  -0.001357  -0.002845   0.000377  -0.018320
    21  C    0.031644   0.002005  -0.000907   0.006854  -0.001589   0.061303
    22  H    0.007818   0.000457  -0.008463   0.000437  -0.000935   0.016584
    23  H   -0.000444  -0.000062   0.000057   0.000208  -0.000016   0.001011
    24  H   -0.000078  -0.000003  -0.000005  -0.000037   0.000001  -0.000067
    25  C    0.005255   0.000343  -0.000055   0.000002  -0.000145   0.005738
    26  H   -0.001318  -0.000105   0.000658   0.000083   0.000064  -0.001307
    27  O    0.000002   0.000000  -0.000002   0.000000   0.000001   0.000000
    28  C    0.000079   0.000006  -0.000003   0.000006  -0.000008   0.000163
    29  H    0.000012   0.000001  -0.000004  -0.000005   0.000000   0.000017
    30  H    0.000002   0.000000  -0.000001  -0.000001   0.000000   0.000003
    31  H    0.000009   0.000000  -0.000010   0.000004   0.000000   0.000002
               7          8          9         10         11         12
     1  C    0.441464  -0.001316  -0.000173  -0.259960   0.004347   0.285356
     2  H   -0.010061   0.004167  -0.005587   0.037833  -0.000466   0.004126
     3  H   -0.047581  -0.002774   0.002637   0.011728   0.001367  -0.000622
     4  C    0.009989   0.392659   0.430458  -0.052201  -0.028041  -0.154675
     5  H    0.001117  -0.031006  -0.065225  -0.026575   0.007925   0.009841
     6  N   -0.038311  -0.094694  -0.052895   0.289084  -0.071909  -0.296762
     7  H    0.509941  -0.000787  -0.000684  -0.019700  -0.004614   0.021266
     8  H   -0.000787   0.539264  -0.020378   0.089354  -0.011329   0.003204
     9  H   -0.000684  -0.020378   0.554880  -0.012546  -0.001844  -0.004741
    10  C   -0.019700   0.089354  -0.012546   8.009326   0.232633  -1.223151
    11  H   -0.004614  -0.011329  -0.001844   0.232633   0.504202   0.130668
    12  C    0.021266   0.003204  -0.004741  -1.223151   0.130668  13.847787
    13  C   -0.048395  -0.011192  -0.005910  -0.993523   0.067729   0.900683
    14  H   -0.006356  -0.002314  -0.002029  -0.185445   0.021316   0.571143
    15  O    0.000212   0.000905   0.000031  -0.075765  -0.004432  -0.373288
    16  C   -0.007217  -0.008256   0.001151   0.619283   0.041045  -4.637764
    17  C   -0.001151  -0.001857  -0.000027  -0.073351   0.027777  -0.420756
    18  C    0.008423   0.002639  -0.001803   0.255004  -0.064065  -1.530339
    19  O   -0.000059   0.000062  -0.000004  -0.008667  -0.000899  -0.031900
    20  C    0.001040  -0.001904   0.000059  -0.197035   0.035817  -1.501782
    21  C   -0.000427   0.005835  -0.000784   0.248689  -0.061129   0.497571
    22  H    0.002924   0.000914   0.000141  -0.033160  -0.006021   0.012065
    23  H    0.000159   0.000113   0.000009   0.011013  -0.002852   0.000124
    24  H    0.000007   0.000000  -0.000001  -0.001504   0.000084  -0.013377
    25  C   -0.000228   0.000626  -0.000091   0.018477  -0.010258   0.204275
    26  H   -0.000047  -0.000034  -0.000005   0.009502   0.000665  -0.024630
    27  O   -0.000001  -0.000001   0.000000  -0.000247  -0.000007   0.000287
    28  C   -0.000005   0.000029  -0.000001   0.000580  -0.000539   0.004265
    29  H    0.000000   0.000003   0.000000  -0.000117  -0.000039   0.000714
    30  H    0.000000   0.000002   0.000000   0.000015  -0.000024  -0.000019
    31  H    0.000000  -0.000002   0.000000  -0.000189   0.000021   0.000209
              13         14         15         16         17         18
     1  C   -0.118905   0.011617  -0.001115  -0.127055  -0.004187   0.043395
     2  H   -0.010614  -0.001650   0.000013  -0.006157   0.000103   0.000113
     3  H    0.027688  -0.003164  -0.000568   0.014770   0.000407  -0.003214
     4  C   -0.059706  -0.011876  -0.002482   0.018161   0.000146   0.016563
     5  H    0.011916   0.002979  -0.000060   0.004774   0.000707  -0.000429
     6  N   -0.101908  -0.042612  -0.003730  -0.082463  -0.020003   0.061108
     7  H   -0.048395  -0.006356   0.000212  -0.007217  -0.001151   0.008423
     8  H   -0.011192  -0.002314   0.000905  -0.008256  -0.001857   0.002639
     9  H   -0.005910  -0.002029   0.000031   0.001151  -0.000027  -0.001803
    10  C   -0.993523  -0.185445  -0.075765   0.619283  -0.073351   0.255004
    11  H    0.067729   0.021316  -0.004432   0.041045   0.027777  -0.064065
    12  C    0.900683   0.571143  -0.373288  -4.637764  -0.420756  -1.530339
    13  C   14.118282   0.077270   0.789336  -1.487192   0.264072  -2.630237
    14  H    0.077270   0.498291   0.014093   0.008597   0.027898  -0.152255
    15  O    0.789336   0.014093   8.125081  -0.086699   0.053119  -0.085490
    16  C   -1.487192   0.008597  -0.086699  16.650902   0.512094  -0.806236
    17  C    0.264072   0.027898   0.053119   0.512094  19.042256  -6.901597
    18  C   -2.630237  -0.152255  -0.085490  -0.806236  -6.901597  17.162734
    19  O   -0.086757   0.001163  -0.023511   0.109120   0.439132   0.014932
    20  C   -3.982405   0.022270  -0.081395  -1.989026  -9.841206   6.620173
    21  C   -0.341382  -0.072321   0.004428  -2.251990   2.678386  -3.462620
    22  H   -0.056662  -0.009099  -0.002242  -0.259313  -0.057430   0.511558
    23  H   -0.026328  -0.002848   0.096565  -0.164243   0.089164   0.003915
    24  H   -0.044375  -0.000060  -0.000399  -0.097718  -0.269102   0.093937
    25  C   -0.318670  -0.008565   0.000974  -1.166043   0.265252  -2.096048
    26  H   -0.010074  -0.000271   0.000533   0.107899   0.035389   0.025875
    27  O   -0.003120   0.000048  -0.000020   0.007863   0.059243  -0.096783
    28  C   -0.007835  -0.000409   0.000005  -0.146558   0.185872  -0.414831
    29  H    0.001448  -0.000019  -0.000002   0.000164   0.006007  -0.023213
    30  H   -0.001227  -0.000019   0.000000  -0.009003   0.001829  -0.009129
    31  H    0.001148   0.000070  -0.000008   0.004339  -0.005274  -0.004349
              19         20         21         22         23         24
     1  C   -0.000049  -0.006510   0.031644   0.007818  -0.000444  -0.000078
     2  H   -0.000006  -0.000296   0.002005   0.000457  -0.000062  -0.000003
     3  H    0.000012  -0.001357  -0.000907  -0.008463   0.000057  -0.000005
     4  C   -0.000166  -0.002845   0.006854   0.000437   0.000208  -0.000037
     5  H    0.000004   0.000377  -0.001589  -0.000935  -0.000016   0.000001
     6  N   -0.000199  -0.018320   0.061303   0.016584   0.001011  -0.000067
     7  H   -0.000059   0.001040  -0.000427   0.002924   0.000159   0.000007
     8  H    0.000062  -0.001904   0.005835   0.000914   0.000113   0.000000
     9  H   -0.000004   0.000059  -0.000784   0.000141   0.000009  -0.000001
    10  C   -0.008667  -0.197035   0.248689  -0.033160   0.011013  -0.001504
    11  H   -0.000899   0.035817  -0.061129  -0.006021  -0.002852   0.000084
    12  C   -0.031900  -1.501782   0.497571   0.012065   0.000124  -0.013377
    13  C   -0.086757  -3.982405  -0.341382  -0.056662  -0.026328  -0.044375
    14  H    0.001163   0.022270  -0.072321  -0.009099  -0.002848  -0.000060
    15  O   -0.023511  -0.081395   0.004428  -0.002242   0.096565  -0.000399
    16  C    0.109120  -1.989026  -2.251990  -0.259313  -0.164243  -0.097718
    17  C    0.439132  -9.841206   2.678386  -0.057430   0.089164  -0.269102
    18  C    0.014932   6.620173  -3.462620   0.511558   0.003915   0.093937
    19  O    8.114764  -0.503168   0.026458  -0.000767   0.238127  -0.026230
    20  C   -0.503168  28.512770  -8.634392   0.079194   0.035009   0.934314
    21  C    0.026458  -8.634392  15.883306   0.031465   0.029447  -0.143064
    22  H   -0.000767   0.079194   0.031465   0.458373   0.000621   0.002058
    23  H    0.238127   0.035009   0.029447   0.000621   0.351681   0.002315
    24  H   -0.026230   0.934314  -0.143064   0.002058   0.002315   0.449446
    25  C    0.048834  -2.229948   1.016765   0.084350   0.001372  -0.133615
    26  H   -0.000216  -0.014528   0.419145  -0.018905   0.000289   0.000083
    27  O   -0.001382  -0.775743   0.326537   0.000245  -0.000232  -0.021937
    28  C   -0.000075  -0.036889  -0.140721   0.011569   0.000669   0.000769
    29  H    0.000000  -0.023454   0.024616   0.001286  -0.000019  -0.000749
    30  H    0.000028   0.012400  -0.000809   0.000481   0.000062   0.000415
    31  H    0.000036  -0.009184   0.013620   0.001148  -0.000024  -0.000701
              25         26         27         28         29         30
     1  C    0.005255  -0.001318   0.000002   0.000079   0.000012   0.000002
     2  H    0.000343  -0.000105   0.000000   0.000006   0.000001   0.000000
     3  H   -0.000055   0.000658  -0.000002  -0.000003  -0.000004  -0.000001
     4  C    0.000002   0.000083   0.000000   0.000006  -0.000005  -0.000001
     5  H   -0.000145   0.000064   0.000001  -0.000008   0.000000   0.000000
     6  N    0.005738  -0.001307   0.000000   0.000163   0.000017   0.000003
     7  H   -0.000228  -0.000047  -0.000001  -0.000005   0.000000   0.000000
     8  H    0.000626  -0.000034  -0.000001   0.000029   0.000003   0.000002
     9  H   -0.000091  -0.000005   0.000000  -0.000001   0.000000   0.000000
    10  C    0.018477   0.009502  -0.000247   0.000580  -0.000117   0.000015
    11  H   -0.010258   0.000665  -0.000007  -0.000539  -0.000039  -0.000024
    12  C    0.204275  -0.024630   0.000287   0.004265   0.000714  -0.000019
    13  C   -0.318670  -0.010074  -0.003120  -0.007835   0.001448  -0.001227
    14  H   -0.008565  -0.000271   0.000048  -0.000409  -0.000019  -0.000019
    15  O    0.000974   0.000533  -0.000020   0.000005  -0.000002   0.000000
    16  C   -1.166043   0.107899   0.007863  -0.146558   0.000164  -0.009003
    17  C    0.265252   0.035389   0.059243   0.185872   0.006007   0.001829
    18  C   -2.096048   0.025875  -0.096783  -0.414831  -0.023213  -0.009129
    19  O    0.048834  -0.000216  -0.001382  -0.000075   0.000000   0.000028
    20  C   -2.229948  -0.014528  -0.775743  -0.036889  -0.023454   0.012400
    21  C    1.016765   0.419145   0.326537  -0.140721   0.024616  -0.000809
    22  H    0.084350  -0.018905   0.000245   0.011569   0.001286   0.000481
    23  H    0.001372   0.000289  -0.000232   0.000669  -0.000019   0.000062
    24  H   -0.133615   0.000083  -0.021937   0.000769  -0.000749   0.000415
    25  C   10.388196  -0.194191   0.406593   0.284729  -0.009488   0.039015
    26  H   -0.194191   0.455135  -0.020186  -0.022434  -0.010348   0.002477
    27  O    0.406593  -0.020186   8.194215   0.192108  -0.030584  -0.057920
    28  C    0.284729  -0.022434   0.192108   5.291088   0.405142   0.393447
    29  H   -0.009488  -0.010348  -0.030584   0.405142   0.549008  -0.018791
    30  H    0.039015   0.002477  -0.057920   0.393447  -0.018791   0.435495
    31  H   -0.019355  -0.010199  -0.030540   0.404116  -0.055630  -0.018719
              31
     1  C    0.000009
     2  H    0.000000
     3  H   -0.000010
     4  C    0.000004
     5  H    0.000000
     6  N    0.000002
     7  H    0.000000
     8  H   -0.000002
     9  H    0.000000
    10  C   -0.000189
    11  H    0.000021
    12  C    0.000209
    13  C    0.001148
    14  H    0.000070
    15  O   -0.000008
    16  C    0.004339
    17  C   -0.005274
    18  C   -0.004349
    19  O    0.000036
    20  C   -0.009184
    21  C    0.013620
    22  H    0.001148
    23  H   -0.000024
    24  H   -0.000701
    25  C   -0.019355
    26  H   -0.010199
    27  O   -0.030540
    28  C    0.404116
    29  H   -0.055630
    30  H   -0.018719
    31  H    0.543536
 Mulliken charges:
               1
     1  C   -0.429356
     2  H    0.204497
     3  H    0.182602
     4  C   -0.326300
     5  H    0.176595
     6  N    0.174752
     7  H    0.189082
     8  H    0.148070
     9  H    0.185361
    10  C   -0.669384
    11  H    0.192872
    12  C   -0.279779
    13  C    0.086846
    14  H    0.244558
    15  O   -0.344089
    16  C    1.232771
    17  C   -0.092911
    18  C   -0.537733
    19  O   -0.308615
    20  C   -0.402034
    21  C   -0.195940
    22  H    0.229310
    23  H    0.335136
    24  H    0.269592
    25  C   -0.584095
    26  H    0.270998
    27  O   -0.148438
    28  C   -0.404333
    29  H    0.184046
    30  H    0.229992
    31  H    0.185925
 Sum of Mulliken charges =   0.00000
 Mulliken charges with hydrogens summed into heavy atoms:
               1
     1  C    0.146826
     4  C    0.183725
     6  N    0.174752
    10  C   -0.476512
    12  C   -0.035221
    13  C    0.086846
    15  O   -0.344089
    16  C    1.232771
    17  C   -0.092911
    18  C   -0.308423
    19  O    0.026522
    20  C   -0.132442
    21  C    0.075058
    25  C   -0.584095
    27  O   -0.148438
    28  C    0.195630
 Electronic spatial extent (au):  <R**2>=           5391.7897
 Charge=              0.0000 electrons
 Dipole moment (field-independent basis, Debye):
    X=              2.4563    Y=             -8.9988    Z=              0.0937  Tot=              9.3284
 Quadrupole moment (field-independent basis, Debye-Ang):
   XX=            -67.3344   YY=           -100.9009   ZZ=            -92.6314
   XY=              1.1299   XZ=              3.3366   YZ=              0.3455
 Traceless Quadrupole moment (field-independent basis, Debye-Ang):
   XX=             19.6211   YY=            -13.9453   ZZ=             -5.6758
   XY=              1.1299   XZ=              3.3366   YZ=              0.3455
 Octapole moment (field-independent basis, Debye-Ang**2):
  XXX=             73.5525  YYY=            -61.9113  ZZZ=              5.5654  XYY=            -28.7442
  XXY=            -98.3061  XXZ=              2.9902  XZZ=             19.6078  YZZ=             -2.2487
  YYZ=             -0.9872  XYZ=             -1.6430
 Hexadecapole moment (field-independent basis, Debye-Ang**3):
 XXXX=          -4641.8010 YYYY=          -1334.4927 ZZZZ=           -318.5120 XXXY=             44.1140
 XXXZ=             27.5750 YYYX=             67.7346 YYYZ=              1.3439 ZZZX=             10.5800
 ZZZY=             -3.8288 XXYY=           -990.2460 XXZZ=           -922.3552 YYZZ=           -268.1894
 XXYZ=              0.8943 YYXZ=              9.8823 ZZXY=             -4.6451
 N-N= 1.049586808593D+03 E-N=-3.841901612569D+03  KE= 7.435256470662D+02
 1\1\GINC-DN54\FOpt\RwB97XD TD-FC\6-311++G(d,p)\C12H15N1O3\CA12053\26-D
 ec-2016\0\\# wb97xd 6-311++g** opt td=(nstates=1,root=1) SCRF=(PCM,sol
 vent=dichloromethane)\\title\\0,1\C,3.896354242,1.185984715,-0.0463028
 731\H,4.8242446565,1.568834855,-0.4633427859\H,3.3492909769,2.00537768
 33,0.4214744907\C,3.6478842955,0.7142455278,-2.4781925375\H,3.78444406
 ,1.767876367,-2.7254932813\N,3.1046454834,0.6023107259,-1.1288190691\H
 ,4.1280082237,0.424874379,0.6992225229\H,2.9660880905,0.2567327958,-3.
 1913207687\H,4.6133348681,0.2078360374,-2.5185480691\C,1.9545436587,0.
 0084521502,-0.9060505676\H,1.4521869503,-0.3966964152,-1.7773298721\C,
 1.326551665,-0.1154242383,0.3388217716\C,0.0739094025,-0.8502372087,0.
 4448826764\H,1.8496110331,0.215299567,1.2369875125\O,0.3309206375,-2.1
 214099931,0.6406758329\C,-1.2269287522,-0.2579943894,0.4056429813\C,-2
 .3899648133,-1.0719737342,0.5370770136\C,-1.4326011599,1.1170113499,0.
 223526142\O,-2.2648804188,-2.4101473756,0.7213983272\C,-3.6522477983,-
 0.5214778795,0.4771505064\C,-2.7100893359,1.6814674588,0.1633746837\H,
 -0.5710344674,1.7705087049,0.1262314658\H,-1.298123983,-2.6038550521,0
 .7365956049\H,-4.5222241736,-1.1602372526,0.5767388161\C,-3.8202502919
 ,0.8576298833,0.2880402691\H,-2.8099882742,2.7492048384,0.0218485744\O
 ,-5.1163195669,1.2868127182,0.2418531897\C,-5.3447743916,2.6697789397,
 0.0648001716\H,-4.9258110881,3.0262144362,-0.8825365052\H,-6.425412045
 3,2.8012461551,0.0509628013\H,-4.920604683,3.2529082507,0.8896169756\\
 Version=ES64L-G09RevD.01\State=1-A\HF=-746.6493964\RMSD=6.229e-09\RMSF
 =1.164e-05\Dipole=5.4677712,3.9059919,-2.3160193\PG=C01 [X(C12H15N1O3)
 ]\\@


 MICHAEL FARADAY, ASKED BY A POLITICIAN WHAT GOOD
 HIS ELECTRICAL DISCOVERIES WERE, REPLIED 
 "AT PRESENT I DO NOT KNOW, BUT ONE DAY YOU WILL BE
 ABLE TO TAX THEM."
 Job cpu time:       1 days 18 hours 27 minutes 57.6 seconds.
 File lengths (MBytes):  RWF=    314 Int=      0 D2E=      0 Chk=     31 Scr=      1
 Normal termination of Gaussian 09 at Mon Dec 26 05:36:26 2016.
