 Entering Gaussian System, Link 0=g09
 Input=4_5states_DCM.com
 Output=4_5states_DCM.out
 Initial command:
 /share/apps/gaussian/g09_D01/g09/l1.exe "/tmp/3821961.1.serial.q/Gau-28878.inp" -scrdir="/tmp/3821961.1.serial.q/"
 Entering Link 1 = /share/apps/gaussian/g09_D01/g09/l1.exe PID=     28879.
  
 Copyright (c) 1988,1990,1992,1993,1995,1998,2003,2009,2013,
            Gaussian, Inc.  All Rights Reserved.
  
 This is part of the Gaussian(R) 09 program.  It is based on
 the Gaussian(R) 03 system (copyright 2003, Gaussian, Inc.),
 the Gaussian(R) 98 system (copyright 1998, Gaussian, Inc.),
 the Gaussian(R) 94 system (copyright 1995, Gaussian, Inc.),
 the Gaussian 92(TM) system (copyright 1992, Gaussian, Inc.),
 the Gaussian 90(TM) system (copyright 1990, Gaussian, Inc.),
 the Gaussian 88(TM) system (copyright 1988, Gaussian, Inc.),
 the Gaussian 86(TM) system (copyright 1986, Carnegie Mellon
 University), and the Gaussian 82(TM) system (copyright 1983,
 Carnegie Mellon University). Gaussian is a federally registered
 trademark of Gaussian, Inc.
  
 This software contains proprietary and confidential information,
 including trade secrets, belonging to Gaussian, Inc.
  
 This software is provided under written license and may be
 used, copied, transmitted, or stored only in accord with that
 written license.
  
 The following legend is applicable only to US Government
 contracts under FAR:
  
                    RESTRICTED RIGHTS LEGEND
  
 Use, reproduction and disclosure by the US Government is
 subject to restrictions as set forth in subparagraphs (a)
 and (c) of the Commercial Computer Software - Restricted
 Rights clause in FAR 52.227-19.
  
 Gaussian, Inc.
 340 Quinnipiac St., Bldg. 40, Wallingford CT 06492
  
  
 ---------------------------------------------------------------
 Warning -- This program may not be used in any manner that
 competes with the business of Gaussian, Inc. or will provide
 assistance to any competitor of Gaussian, Inc.  The licensee
 of this program is prohibited from giving any competitor of
 Gaussian, Inc. access to this program.  By using this program,
 the user acknowledges that Gaussian, Inc. is engaged in the
 business of creating and licensing software in the field of
 computational chemistry and represents and warrants to the
 licensee that it is not a competitor of Gaussian, Inc. and that
 it will not use this program in any manner prohibited above.
 ---------------------------------------------------------------
  

 Cite this work as:
 Gaussian 09, Revision D.01,
 M. J. Frisch, G. W. Trucks, H. B. Schlegel, G. E. Scuseria, 
 M. A. Robb, J. R. Cheeseman, G. Scalmani, V. Barone, B. Mennucci, 
 G. A. Petersson, H. Nakatsuji, M. Caricato, X. Li, H. P. Hratchian, 
 A. F. Izmaylov, J. Bloino, G. Zheng, J. L. Sonnenberg, M. Hada, 
 M. Ehara, K. Toyota, R. Fukuda, J. Hasegawa, M. Ishida, T. Nakajima, 
 Y. Honda, O. Kitao, H. Nakai, T. Vreven, J. A. Montgomery, Jr., 
 J. E. Peralta, F. Ogliaro, M. Bearpark, J. J. Heyd, E. Brothers, 
 K. N. Kudin, V. N. Staroverov, T. Keith, R. Kobayashi, J. Normand, 
 K. Raghavachari, A. Rendell, J. C. Burant, S. S. Iyengar, J. Tomasi, 
 M. Cossi, N. Rega, J. M. Millam, M. Klene, J. E. Knox, J. B. Cross, 
 V. Bakken, C. Adamo, J. Jaramillo, R. Gomperts, R. E. Stratmann, 
 O. Yazyev, A. J. Austin, R. Cammi, C. Pomelli, J. W. Ochterski, 
 R. L. Martin, K. Morokuma, V. G. Zakrzewski, G. A. Voth, 
 P. Salvador, J. J. Dannenberg, S. Dapprich, A. D. Daniels, 
 O. Farkas, J. B. Foresman, J. V. Ortiz, J. Cioslowski, 
 and D. J. Fox, Gaussian, Inc., Wallingford CT, 2013.
 
 ******************************************
 Gaussian 09:  ES64L-G09RevD.01 24-Apr-2013
                21-Oct-2016 
 ******************************************
 %chk=4_5states_DCM.chk
 %mem=8GB
 %nproc=4
 Will use up to    4 processors via shared memory.
 ----------------------------------------------------------------------
 # wb97xd 6-311++g** td=(singlets,nstates=5) geom=allcheck SCRF=(PCM,so
 lvent=dichloromethane)
 ----------------------------------------------------------------------
 1/29=7,38=1/1;
 2/12=2,40=1/2;
 3/5=4,6=6,7=1111,11=9,14=-4,16=1,25=1,30=1,70=2201,72=9,74=-58/1,2,8,3;
 4//1;
 5/5=2,38=5,53=9/2;
 8/6=1,10=2,108=5/1;
 9/41=5,42=1,48=1,70=2/14;
 6/7=2,8=2,9=2,10=2/1;
 99/5=1,9=1/99;
 Structure from the checkpoint file:  "4_5states_DCM.chk"
 -----------
 Geom Opt s0
 -----------
 Charge =  0 Multiplicity = 1
 Redundant internal coordinates found in file.
 C,0,-3.7497500938,2.2477261113,-0.0477358847
 H,0,-4.760930778,2.6353905289,-0.1690087674
 H,0,-3.3346317531,2.6352603705,0.8901579266
 C,0,-5.0749702971,0.1515881028,0.1050470675
 H,0,-5.5166669207,0.3722196708,1.0832300979
 N,0,-3.7867462409,0.7996955378,-0.0493909661
 H,0,-3.1371688843,2.613627651,-0.8768660719
 H,0,-4.9523518728,-0.9275553298,0.0163651984
 H,0,-5.7662040188,0.4857430881,-0.6737075207
 C,0,-2.6461566408,0.0944784944,-0.0252773018
 H,0,-2.7624261444,-0.9852157638,-0.0083141285
 C,0,-1.3768665083,0.5888052813,-0.0282412204
 C,0,-0.2770236565,-0.3531171977,-0.026636891
 H,0,-1.1924608029,1.6518379,-0.0214372282
 O,0,-0.4844265837,-1.5790718436,-0.0366200967
 C,0,1.1291795768,0.136525687,-0.0088074031
 C,0,2.18785849,-0.7998937225,0.0028409679
 C,0,1.4482970133,1.5042867319,-0.003734534
 O,0,1.9897290207,-2.1201741444,-0.0019260643
 C,0,3.5148886085,-0.3502429276,0.0201183444
 C,0,2.7585672358,1.9087927153,0.0128596968
 H,0,0.6802384979,2.2652000013,-0.0129522062
 H,0,1.0126835392,-2.252971295,-0.0170412867
 H,0,4.3031625734,-1.0927042093,0.0288906047
 C,0,3.8057799256,0.9977912077,0.0251756413
 F,0,3.041247033,3.2308152197,0.017271252
 H,0,4.828705601,1.3541185017,0.0385236208
 Recover connectivity data from disk.
                          Input orientation:                          
 ---------------------------------------------------------------------
 Center     Atomic      Atomic             Coordinates (Angstroms)
 Number     Number       Type             X           Y           Z
 ---------------------------------------------------------------------
      1          6           0       -3.749750    2.247726   -0.047736
      2          1           0       -4.760931    2.635391   -0.169009
      3          1           0       -3.334632    2.635260    0.890158
      4          6           0       -5.074970    0.151588    0.105047
      5          1           0       -5.516667    0.372220    1.083230
      6          7           0       -3.786746    0.799696   -0.049391
      7          1           0       -3.137169    2.613628   -0.876866
      8          1           0       -4.952352   -0.927555    0.016365
      9          1           0       -5.766204    0.485743   -0.673708
     10          6           0       -2.646157    0.094478   -0.025277
     11          1           0       -2.762426   -0.985216   -0.008314
     12          6           0       -1.376867    0.588805   -0.028241
     13          6           0       -0.277024   -0.353117   -0.026637
     14          1           0       -1.192461    1.651838   -0.021437
     15          8           0       -0.484427   -1.579072   -0.036620
     16          6           0        1.129180    0.136526   -0.008807
     17          6           0        2.187858   -0.799894    0.002841
     18          6           0        1.448297    1.504287   -0.003735
     19          8           0        1.989729   -2.120174   -0.001926
     20          6           0        3.514889   -0.350243    0.020118
     21          6           0        2.758567    1.908793    0.012860
     22          1           0        0.680238    2.265200   -0.012952
     23          1           0        1.012684   -2.252971   -0.017041
     24          1           0        4.303163   -1.092704    0.028891
     25          6           0        3.805780    0.997791    0.025176
     26          9           0        3.041247    3.230815    0.017271
     27          1           0        4.828706    1.354119    0.038524
 ---------------------------------------------------------------------
                    Distance matrix (angstroms):
                    1          2          3          4          5
     1  C    0.000000
     2  H    1.089714   0.000000
     3  H    1.096426   1.776559   0.000000
     4  C    2.484622   2.518532   3.132699   0.000000
     5  H    2.814001   2.694658   3.149588   1.095726   0.000000
     6  N    1.448504   2.081615   2.111032   1.450316   2.111443
     7  H    1.093891   1.771479   1.778154   3.283423   3.811548
     8  H    3.395994   3.572896   4.009263   1.089702   1.773716
     9  H    2.750002   2.426166   3.602588   1.093582   1.778197
    10  C    2.419690   3.308952   2.787040   2.432978   3.089621
    11  H    3.380573   4.138675   3.773926   2.579348   3.258825
    12  C    2.895337   3.957299   2.977294   3.726244   4.291879
    13  C    4.338739   5.390443   4.372629   4.826216   5.404792
    14  H    2.625929   3.704474   2.527256   4.164208   4.642895
    15  O    5.030591   6.005640   5.171381   4.907988   5.512263
    16  C    5.316262   6.400265   5.193980   6.205213   6.739093
    17  C    6.674260   7.753476   6.563956   7.325602   7.867706
    18  C    5.251127   6.313574   4.995453   6.662931   7.139593
    19  O    7.212647   8.259220   7.194358   7.421747   7.983456
    20  C    7.715505   8.799941   7.522375   8.604924   9.122563
    21  C    6.517418   7.556710   6.198748   8.028734   8.484471
    22  H    4.430160   5.455980   4.131796   6.132186   6.571653
    23  H    6.552709   7.566624   6.604314   6.546475   7.122825
    24  H    8.718586   9.802839   8.542564   9.460626   9.984322
    25  C    7.658570   8.723988   7.376651   8.921332   9.403129
    26  F    6.862094   7.827082   6.462851   8.681148   9.085468
    27  H    8.625304   9.677079   8.307026   9.976638  10.444246
                    6          7          8          9         10
     6  N    0.000000
     7  H    2.096906   0.000000
     8  H    2.084792   4.078324   0.000000
     9  H    2.099188   3.388361   1.770866   0.000000
    10  C    1.341215   2.704147   2.522860   3.210646   0.000000
    11  H    2.058355   3.721087   2.190824   3.410154   1.086069
    12  C    2.419182   2.814025   3.883997   4.437740   1.362155
    13  C    3.694272   4.207719   4.710682   5.590482   2.411044
    14  H    2.730796   2.332099   4.559767   4.764909   2.130402
    15  O    4.069891   5.032076   4.515489   5.706708   2.733857
    16  C    4.960622   5.009121   6.173972   6.936163   3.775606
    17  C    6.185250   6.386073   7.141364   8.085647   4.916136
    18  C    5.282444   4.797863   6.847084   7.316783   4.330424
    19  O    6.472678   7.032744   7.043803   8.209543   5.137769
    20  C    7.391959   7.337505   8.486900   9.344461   6.177242
    21  C    6.638908   6.004008   8.216030   8.669958   5.701248
    22  H    4.701381   3.929421   6.474614   6.720096   3.972038
    23  H    5.688088   6.453244   6.110605   7.340646   4.347148
    24  H    8.308666   8.361568   9.256996  10.216520   7.050204
    25  C    7.595476   7.185342   8.967269   9.611114   6.515060
    26  F    7.248191   6.273215   9.010531   9.251166   6.494996
    27  H    8.633720   8.116616  10.043685  10.654270   7.580523
                   11         12         13         14         15
    11  H    0.000000
    12  C    2.097073   0.000000
    13  C    2.564588   1.448059   0.000000
    14  H    3.069041   1.078930   2.204064   0.000000
    15  O    2.354304   2.344400   1.243415   3.307616   0.000000
    16  C    4.050049   2.546606   1.489119   2.772426   2.355371
    17  C    4.953765   3.825796   2.505219   4.175899   2.783843
    18  C    4.891608   2.969892   2.535193   2.644936   3.639176
    19  O    4.885811   4.321253   2.874242   4.935057   2.532872
    20  C    6.309412   4.981307   3.792202   5.115583   4.184228
    21  C    6.233546   4.341183   3.785843   3.959523   4.762841
    22  H    4.734677   2.653717   2.787853   1.970606   4.016893
    23  H    3.982303   3.712919   2.296276   4.484442   1.641908
    24  H    7.066504   5.923974   4.639847   6.143038   4.812676
    25  C    6.861106   5.199033   4.300805   5.041067   5.004989
    26  F    7.173437   5.148011   4.884406   4.518733   5.963916
    27  H    7.943548   6.252942   5.383992   6.028821   6.069483
                   16         17         18         19         20
    16  C    0.000000
    17  C    1.413442   0.000000
    18  C    1.404504   2.419967   0.000000
    19  O    2.415220   1.335072   3.664679   0.000000
    20  C    2.435033   1.401247   2.776806   2.336505   0.000000
    21  C    2.407551   2.768175   1.371389   4.101695   2.382292
    22  H    2.175504   3.415841   1.081197   4.576723   3.857055
    23  H    2.392349   1.868921   3.782449   0.986145   3.143690
    24  H    3.403909   2.135633   3.859493   2.531525   1.082913
    25  C    2.811961   2.418644   2.411452   3.608391   1.379072
    26  F    3.637487   4.120084   2.349219   5.453361   3.612246
    27  H    3.895031   3.408096   3.384006   4.486885   2.152046
                   21         22         23         24         25
    21  C    0.000000
    22  H    2.108825   0.000000
    23  H    4.513234   4.530387   0.000000
    24  H    3.375650   4.939924   3.489353   0.000000
    25  C    1.388067   3.372949   4.286097   2.148854   0.000000
    26  F    1.351914   2.551017   5.847064   4.503930   2.360290
    27  H    2.143314   4.247646   5.251305   2.502645   1.083293
                   26         27
    26  F    0.000000
    27  H    2.591804   0.000000
 Stoichiometry    C11H12FNO2
 Framework group  C1[X(C11H12FNO2)]
 Deg. of freedom    75
 Full point group                 C1      NOp   1
 Largest Abelian subgroup         C1      NOp   1
 Largest concise Abelian subgroup C1      NOp   1
                         Standard orientation:                         
 ---------------------------------------------------------------------
 Center     Atomic      Atomic             Coordinates (Angstroms)
 Number     Number       Type             X           Y           Z
 ---------------------------------------------------------------------
      1          6           0        3.773719    1.787609    0.045851
      2          1           0        4.784960    2.175226    0.166776
      3          1           0        3.358265    2.175232   -0.891857
      4          6           0        5.098802   -0.308568   -0.107589
      5          1           0        5.540141   -0.087877   -1.085920
      6          7           0        3.810661    0.339577    0.047381
      7          1           0        3.161462    2.153470    0.875239
      8          1           0        4.976176   -1.387713   -0.018945
      9          1           0        5.790340    0.025501    0.670933
     10          6           0        2.670035   -0.365595    0.023640
     11          1           0        2.786257   -1.445292    0.006550
     12          6           0        1.400765    0.128780    0.027116
     13          6           0        0.300886   -0.813100    0.025851
     14          1           0        1.216398    1.191821    0.020463
     15          8           0        0.508246   -2.039063    0.035662
     16          6           0       -1.105305   -0.323402    0.008585
     17          6           0       -2.164024   -1.259780   -0.002739
     18          6           0       -1.424372    1.044371    0.003737
     19          8           0       -1.965943   -2.580069    0.001852
     20          6           0       -3.491043   -0.810078   -0.019485
     21          6           0       -2.734633    1.448929   -0.012336
     22          1           0       -0.656281    1.805255    0.012726
     23          1           0       -0.988897   -2.712904    0.016592
     24          1           0       -4.279349   -1.552508   -0.028020
     25          6           0       -3.781885    0.537968   -0.024330
     26          9           0       -3.017264    2.770962   -0.016540
     27          1           0       -4.804802    0.894335   -0.037268
 ---------------------------------------------------------------------
 Rotational constants (GHZ):      1.0613111      0.2927762      0.2302058
 Standard basis: 6-311++G(d,p) (5D, 7F)
 There are   429 symmetry adapted cartesian basis functions of A   symmetry.
 There are   414 symmetry adapted basis functions of A   symmetry.
   414 basis functions,   648 primitive gaussians,   429 cartesian basis functions
    55 alpha electrons       55 beta electrons
       nuclear repulsion energy       944.1972738621 Hartrees.
 NAtoms=   27 NActive=   27 NUniq=   27 SFac= 1.00D+00 NAtFMM=   60 NAOKFM=F Big=F
 Integral buffers will be    131072 words long.
 Raffenetti 1 integral format.
 Two-electron integral symmetry is turned on.
 Nuclear repulsion after empirical dispersion term =      944.1821318563 Hartrees.
 ------------------------------------------------------------------------------
 Polarizable Continuum Model (PCM)
 =================================
 Model                : PCM (using non-symmetric T matrix).
 Atomic radii         : UFF (Universal Force Field).
 Polarization charges : Total charges.
 Charge compensation  : None.
 Solution method      : On-the-fly selection.
 Cavity type          : Scaled VdW (van der Waals Surface) (Alpha=1.100).
 Cavity algorithm     : GePol (No added spheres)
                        Default sphere list used, NSphG=   27.
                        Lebedev-Laikov grids with approx.  5.0 points / Ang**2.
                        Smoothing algorithm: Karplus/York (Gamma=1.0000).
                        Polarization charges: spherical gaussians, with
                                              point-specific exponents (IZeta= 3).
                        Self-potential: point-specific (ISelfS= 7).
                        Self-field    : sphere-specific E.n sum rule (ISelfD= 2).
 Solvent              : Dichloromethane, Eps=   8.930000 Eps(inf)=   2.028346
 ------------------------------------------------------------------------------
 One-electron integrals computed using PRISM.
 NBasis=   414 RedAO= T EigKep=  1.73D-06  NBF=   414
 NBsUse=   411 1.00D-06 EigRej=  7.34D-07 NBFU=   411
 ExpMin= 3.60D-02 ExpMax= 1.14D+04 ExpMxC= 1.72D+03 IAcc=3 IRadAn=         5 AccDes= 0.00D+00
 Harris functional with IExCor= 4639 and IRadAn=       5 diagonalized for initial guess.
 HarFok:  IExCor= 4639 AccDes= 0.00D+00 IRadAn=         5 IDoV= 1 UseB2=F ITyADJ=14
 ICtDFT=  3500011 ScaDFX=  1.000000  1.000000  1.000000  1.000000
 FoFCou: FMM=F IPFlag=           0 FMFlag=      100000 FMFlg1=           0
         NFxFlg=           0 DoJE=T BraDBF=F KetDBF=T FulRan=T
         wScrn=  0.000000 ICntrl=     500 IOpCl=  0 I1Cent=   200000004 NGrid=           0
         NMat0=    1 NMatS0=      1 NMatT0=    0 NMatD0=    1 NMtDS0=    0 NMtDT0=    0
 Petite list used in FoFCou.
 Requested convergence on RMS density matrix=1.00D-08 within 128 cycles.
 Requested convergence on MAX density matrix=1.00D-06.
 Requested convergence on             energy=1.00D-06.
 No special actions if energy rises.
 Inv3:  Mode=1 IEnd=    14283372.
 Iteration    1 A*A^-1 deviation from unit magnitude is 4.55D-15 for   2169.
 Iteration    1 A*A^-1 deviation from orthogonality  is 2.79D-15 for   2169   1995.
 Iteration    1 A^-1*A deviation from unit magnitude is 4.66D-15 for   2157.
 Iteration    1 A^-1*A deviation from orthogonality  is 2.30D-12 for   1985   1979.
 Error on total polarization charges =  0.01283
 SCF Done:  E(RwB97XD) =  -731.403739776     A.U. after   16 cycles
            NFock= 16  Conv=0.99D-08     -V/T= 2.0037
 DoSCS=F DFT=T ScalE2(SS,OS)=  1.000000  1.000000
 ExpMin= 3.60D-02 ExpMax= 1.14D+04 ExpMxC= 1.72D+03 IAcc=3 IRadAn=         5 AccDes= 0.00D+00
 HarFok:  IExCor=  205 AccDes= 0.00D+00 IRadAn=         5 IDoV=-2 UseB2=F ITyADJ=14
 ICtDFT= 12500011 ScaDFX=  1.000000  1.000000  1.000000  1.000000
 Range of M.O.s used for correlation:    16   411
 NBasis=   414 NAE=    55 NBE=    55 NFC=    15 NFV=     0
 NROrb=    396 NOA=    40 NOB=    40 NVA=   356 NVB=   356

 **** Warning!!: The largest alpha MO coefficient is  0.14469041D+03

 Would need an additional         21144100000 words for in-memory AO integral storage.
 NEqPCM:  Using non-equilibrium solvation (IEInf=1, Eps=   8.9300, EpsInf=   2.0283)
 Inv3:  Mode=1 IEnd=    14283372.
 Iteration    1 A*A^-1 deviation from unit magnitude is 5.22D-15 for   2173.
 Iteration    1 A*A^-1 deviation from orthogonality  is 1.80D-15 for   2158    739.
 Iteration    1 A^-1*A deviation from unit magnitude is 5.22D-15 for   2173.
 Iteration    1 A^-1*A deviation from orthogonality  is 1.66D-15 for   1751   1275.
 Orbital symmetries:
       Occupied  (A) (A) (A) (A) (A) (A) (A) (A) (A) (A) (A) (A)
                 (A) (A) (A) (A) (A) (A) (A) (A) (A) (A) (A) (A)
                 (A) (A) (A) (A) (A) (A) (A) (A) (A) (A) (A) (A)
                 (A) (A) (A) (A) (A) (A) (A) (A) (A) (A) (A) (A)
                 (A) (A) (A) (A) (A) (A) (A)
       Virtual   (A) (A) (A) (A) (A) (A) (A) (A) (A) (A) (A) (A)
                 (A) (A) (A) (A) (A) (A) (A) (A) (A) (A) (A) (A)
                 (A) (A) (A) (A) (A) (A) (A) (A) (A) (A) (A) (A)
                 (A) (A) (A) (A) (A) (A) (A) (A) (A) (A) (A) (A)
                 (A) (A) (A) (A) (A) (A) (A) (A) (A) (A) (A) (A)
                 (A) (A) (A) (A) (A) (A) (A) (A) (A) (A) (A) (A)
                 (A) (A) (A) (A) (A) (A) (A) (A) (A) (A) (A) (A)
                 (A) (A) (A) (A) (A) (A) (A) (A) (A) (A) (A) (A)
                 (A) (A) (A) (A) (A) (A) (A) (A) (A) (A) (A) (A)
                 (A) (A) (A) (A) (A) (A) (A) (A) (A) (A) (A) (A)
                 (A) (A) (A) (A) (A) (A) (A) (A) (A) (A) (A) (A)
                 (A) (A) (A) (A) (A) (A) (A) (A) (A) (A) (A) (A)
                 (A) (A) (A) (A) (A) (A) (A) (A) (A) (A) (A) (A)
                 (A) (A) (A) (A) (A) (A) (A) (A) (A) (A) (A) (A)
                 (A) (A) (A) (A) (A) (A) (A) (A) (A) (A) (A) (A)
                 (A) (A) (A) (A) (A) (A) (A) (A) (A) (A) (A) (A)
                 (A) (A) (A) (A) (A) (A) (A) (A) (A) (A) (A) (A)
                 (A) (A) (A) (A) (A) (A) (A) (A) (A) (A) (A) (A)
                 (A) (A) (A) (A) (A) (A) (A) (A) (A) (A) (A) (A)
                 (A) (A) (A) (A) (A) (A) (A) (A) (A) (A) (A) (A)
                 (A) (A) (A) (A) (A) (A) (A) (A) (A) (A) (A) (A)
                 (A) (A) (A) (A) (A) (A) (A) (A) (A) (A) (A) (A)
                 (A) (A) (A) (A) (A) (A) (A) (A) (A) (A) (A) (A)
                 (A) (A) (A) (A) (A) (A) (A) (A) (A) (A) (A) (A)
                 (A) (A) (A) (A) (A) (A) (A) (A) (A) (A) (A) (A)
                 (A) (A) (A) (A) (A) (A) (A) (A) (A) (A) (A) (A)
                 (A) (A) (A) (A) (A) (A) (A) (A) (A) (A) (A) (A)
                 (A) (A) (A) (A) (A) (A) (A) (A) (A) (A) (A) (A)
                 (A) (A) (A) (A) (A) (A) (A) (A) (A) (A) (A) (A)
                 (A) (A) (A) (A) (A) (A) (A) (A)
    20 initial guesses have been made.
 Convergence on wavefunction:    0.001000000000000
 Iteration     1 Dimension    20 NMult     0 NNew     20
 CISAX will form    20 AO SS matrices at one time.
 New state      2 was old state      6
 New state      3 was old state      2
 New state      4 was old state      3
 New state      5 was old state      8
 Iteration     2 Dimension    30 NMult    20 NNew     10
 New state      4 was old state      5
 New state      5 was old state      4
 Iteration     3 Dimension    40 NMult    30 NNew     10
 Iteration     4 Dimension    50 NMult    40 NNew     10
 Iteration     5 Dimension    60 NMult    50 NNew     10
 Iteration     6 Dimension    70 NMult    60 NNew     10
 Iteration     7 Dimension    74 NMult    70 NNew      4
 Iteration     8 Dimension    76 NMult    74 NNew      2
 ***********************************************************************
 Excited states from <AA,BB:AA,BB> singles matrix:
 ***********************************************************************
 
 Ground to excited state transition densities written to RWF  633
 Ground to excited state transition electric dipole moments (Au):
       state          X           Y           Z        Dip. S.      Osc.
         1        -2.6907     -0.6497      0.0192      7.6623      0.7400
         2        -0.0440      0.0065      0.0180      0.0023      0.0002
         3        -0.5541     -0.0590      0.0267      0.3112      0.0334
         4         0.3763     -0.3423      0.0124      0.2590      0.0344
         5        -0.1724     -0.1680      0.5268      0.3355      0.0468
 Ground to excited state transition velocity dipole moments (Au):
       state          X           Y           Z        Dip. S.      Osc.
         1         0.3876      0.0968     -0.0030      0.1596      0.7345
         2         0.0058     -0.0026     -0.0023      0.0000      0.0002
         3         0.0847      0.0043     -0.0046      0.0072      0.0299
         4        -0.0648      0.0649     -0.0024      0.0084      0.0282
         5         0.0342      0.0368     -0.1106      0.0148      0.0470
 Ground to excited state transition magnetic dipole moments (Au):
       state          X           Y           Z
         1        -0.0296      0.0749      0.0824
         2        -0.1161      0.5431      0.2632
         3         0.0049     -0.1309      0.9231
         4        -0.0060      0.0032     -0.1675
         5        -0.2887      0.5873     -0.1296
 Ground to excited state transition velocity quadrupole moments (Au):
       state          XX          YY          ZZ          XY          XZ          YZ
         1         0.7875     -0.2475      0.0475      0.0424     -0.0408      0.0018
         2         0.5120     -0.0198      0.0000      0.1626     -0.0292      0.0248
         3         1.8172     -0.1138      0.0149      0.5335     -0.0183     -0.0036
         4         0.3489     -0.0505      0.0141      0.1245     -0.0098      0.0041
         5         0.5531     -0.0238      0.0479     -0.1018     -0.5896     -0.2618
 <0|del|b> * <b|rxdel|0> + <0|del|b> * <b|delr+rdel|0>
 Rotatory Strengths (R) in cgs (10**-40 erg-esu-cm/Gauss)
       state          XX          YY          ZZ    R(velocity)    E-M Angle
         1        26.4579    -26.6084    -21.6236     -7.2581       95.56
         2        -5.5187     -1.6963     -4.8210     -4.0120      130.46
         3       -15.8313     -3.7074      0.1764     -6.4541       93.19
         4         1.6773      1.4526      0.4011      1.1770       86.29
         5       116.3421    -26.5812     -1.6897     29.3570       71.23
 1/2[<0|r|b>*<b|rxdel|0> + (<0|rxdel|b>*<b|r|0>)*]
 Rotatory Strengths (R) in cgs (10**-40 erg-esu-cm/Gauss)
       state          XX          YY          ZZ     R(length)
         1       -56.3226     34.4305     -1.1212     -7.6711
         2        -3.6125     -2.4913     -3.3414     -3.1484
         3         1.9145     -5.4589    -17.4196     -6.9880
         4         1.6022      0.7637      1.4685      1.2781
         5       -35.1930     69.7857     48.2748     27.6225
  1/2[<0|del|b>*<b|r|0> + (<0|r|b>*<b|del|0>)*] (Au)
       state          X           Y           Z        Dip. S.   Osc.(frdel)
         1        -1.0429     -0.0629     -0.0001      1.1058      0.7372
         2        -0.0003      0.0000      0.0000      0.0003      0.0002
         3        -0.0470     -0.0003     -0.0001      0.0473      0.0316
         4        -0.0244     -0.0222      0.0000      0.0466      0.0311
         5        -0.0059     -0.0062     -0.0583      0.0704      0.0469

 Excitation energies and oscillator strengths:
 
 Excited State   1:      Singlet-A      3.9420 eV  314.52 nm  f=0.7400  <S**2>=0.000
      54 -> 56        -0.14458
      55 -> 56         0.66959
 This state for optimization and/or second-order correction.
 Total Energy, E(TD-HF/TD-KS) =  -731.258874553    
 Copying the excited state density for this state as the 1-particle RhoCI density.
 
 Excited State   2:      Singlet-A      4.3380 eV  285.81 nm  f=0.0002  <S**2>=0.000
      53 -> 56         0.64964
      54 -> 56         0.20130
 
 Excited State   3:      Singlet-A      4.3849 eV  282.75 nm  f=0.0334  <S**2>=0.000
      53 -> 56        -0.20631
      54 -> 56         0.61899
      55 -> 56         0.14783
      55 -> 58        -0.13512
 
 Excited State   4:      Singlet-A      5.4189 eV  228.80 nm  f=0.0344  <S**2>=0.000
      52 -> 56         0.50805
      54 -> 56         0.12921
      54 -> 58        -0.34062
      54 -> 59         0.12083
      55 -> 58         0.20222
 
 Excited State   5:      Singlet-A      5.6992 eV  217.55 nm  f=0.0468  <S**2>=0.000
      54 -> 57         0.16349
      55 -> 57         0.56934
      55 -> 58        -0.11063
      55 -> 61         0.17837
      55 -> 66        -0.12713
      55 -> 67         0.18576
 SavETr:  write IOETrn=   770 NScale= 10 NData=  16 NLR=1 NState=    5 LETran=     100.

 **********************************************************************

            Population analysis using the SCF density.

 **********************************************************************

 Orbital symmetries:
       Occupied  (A) (A) (A) (A) (A) (A) (A) (A) (A) (A) (A) (A)
                 (A) (A) (A) (A) (A) (A) (A) (A) (A) (A) (A) (A)
                 (A) (A) (A) (A) (A) (A) (A) (A) (A) (A) (A) (A)
                 (A) (A) (A) (A) (A) (A) (A) (A) (A) (A) (A) (A)
                 (A) (A) (A) (A) (A) (A) (A)
       Virtual   (A) (A) (A) (A) (A) (A) (A) (A) (A) (A) (A) (A)
                 (A) (A) (A) (A) (A) (A) (A) (A) (A) (A) (A) (A)
                 (A) (A) (A) (A) (A) (A) (A) (A) (A) (A) (A) (A)
                 (A) (A) (A) (A) (A) (A) (A) (A) (A) (A) (A) (A)
                 (A) (A) (A) (A) (A) (A) (A) (A) (A) (A) (A) (A)
                 (A) (A) (A) (A) (A) (A) (A) (A) (A) (A) (A) (A)
                 (A) (A) (A) (A) (A) (A) (A) (A) (A) (A) (A) (A)
                 (A) (A) (A) (A) (A) (A) (A) (A) (A) (A) (A) (A)
                 (A) (A) (A) (A) (A) (A) (A) (A) (A) (A) (A) (A)
                 (A) (A) (A) (A) (A) (A) (A) (A) (A) (A) (A) (A)
                 (A) (A) (A) (A) (A) (A) (A) (A) (A) (A) (A) (A)
                 (A) (A) (A) (A) (A) (A) (A) (A) (A) (A) (A) (A)
                 (A) (A) (A) (A) (A) (A) (A) (A) (A) (A) (A) (A)
                 (A) (A) (A) (A) (A) (A) (A) (A) (A) (A) (A) (A)
                 (A) (A) (A) (A) (A) (A) (A) (A) (A) (A) (A) (A)
                 (A) (A) (A) (A) (A) (A) (A) (A) (A) (A) (A) (A)
                 (A) (A) (A) (A) (A) (A) (A) (A) (A) (A) (A) (A)
                 (A) (A) (A) (A) (A) (A) (A) (A) (A) (A) (A) (A)
                 (A) (A) (A) (A) (A) (A) (A) (A) (A) (A) (A) (A)
                 (A) (A) (A) (A) (A) (A) (A) (A) (A) (A) (A) (A)
                 (A) (A) (A) (A) (A) (A) (A) (A) (A) (A) (A) (A)
                 (A) (A) (A) (A) (A) (A) (A) (A) (A) (A) (A) (A)
                 (A) (A) (A) (A) (A) (A) (A) (A) (A) (A) (A) (A)
                 (A) (A) (A) (A) (A) (A) (A) (A) (A) (A) (A) (A)
                 (A) (A) (A) (A) (A) (A) (A) (A) (A) (A) (A) (A)
                 (A) (A) (A) (A) (A) (A) (A) (A) (A) (A) (A) (A)
                 (A) (A) (A) (A) (A) (A) (A) (A) (A) (A) (A) (A)
                 (A) (A) (A) (A) (A) (A) (A) (A) (A) (A) (A) (A)
                 (A) (A) (A) (A) (A) (A) (A) (A) (A) (A) (A) (A)
                 (A) (A) (A) (A) (A) (A) (A) (A)
 The electronic state is 1-A.
 Alpha  occ. eigenvalues --  -24.82443 -19.27041 -19.23370 -14.48733 -10.38382
 Alpha  occ. eigenvalues --  -10.37525 -10.36623 -10.34674 -10.32329 -10.32187
 Alpha  occ. eigenvalues --  -10.31172 -10.30966 -10.30960 -10.29916 -10.27484
 Alpha  occ. eigenvalues --   -1.33858  -1.17962  -1.14073  -1.08182  -0.97857
 Alpha  occ. eigenvalues --   -0.89819  -0.87790  -0.85396  -0.83990  -0.80059
 Alpha  occ. eigenvalues --   -0.75998  -0.72034  -0.70030  -0.65384  -0.64664
 Alpha  occ. eigenvalues --   -0.63134  -0.60896  -0.60601  -0.57915  -0.57330
 Alpha  occ. eigenvalues --   -0.56993  -0.55122  -0.53648  -0.52866  -0.52744
 Alpha  occ. eigenvalues --   -0.52089  -0.50773  -0.50160  -0.49595  -0.48417
 Alpha  occ. eigenvalues --   -0.48094  -0.47087  -0.46388  -0.44672  -0.43187
 Alpha  occ. eigenvalues --   -0.41356  -0.35475  -0.35165  -0.30930  -0.29190
 Alpha virt. eigenvalues --   -0.00897   0.03939   0.04756   0.04829   0.05353
 Alpha virt. eigenvalues --    0.06127   0.06594   0.06772   0.07945   0.07997
 Alpha virt. eigenvalues --    0.08440   0.08943   0.09308   0.10273   0.11235
 Alpha virt. eigenvalues --    0.11332   0.11744   0.12752   0.13721   0.13976
 Alpha virt. eigenvalues --    0.14298   0.14987   0.15204   0.15728   0.16143
 Alpha virt. eigenvalues --    0.16230   0.16468   0.16852   0.17142   0.17360
 Alpha virt. eigenvalues --    0.18560   0.18793   0.18870   0.19147   0.19651
 Alpha virt. eigenvalues --    0.19755   0.20309   0.20364   0.20749   0.21543
 Alpha virt. eigenvalues --    0.21730   0.21791   0.22038   0.22505   0.22778
 Alpha virt. eigenvalues --    0.23947   0.24529   0.24896   0.25391   0.25567
 Alpha virt. eigenvalues --    0.26093   0.26915   0.26949   0.27413   0.27707
 Alpha virt. eigenvalues --    0.27954   0.28513   0.29059   0.29438   0.30085
 Alpha virt. eigenvalues --    0.30510   0.31232   0.32257   0.32859   0.33131
 Alpha virt. eigenvalues --    0.33471   0.34613   0.35084   0.35237   0.35569
 Alpha virt. eigenvalues --    0.35794   0.37004   0.37447   0.37678   0.37835
 Alpha virt. eigenvalues --    0.38429   0.38762   0.39153   0.39467   0.39493
 Alpha virt. eigenvalues --    0.41308   0.41608   0.41748   0.42982   0.43488
 Alpha virt. eigenvalues --    0.43893   0.44501   0.45152   0.46393   0.47178
 Alpha virt. eigenvalues --    0.47765   0.48845   0.50472   0.50637   0.52526
 Alpha virt. eigenvalues --    0.53005   0.53453   0.55315   0.56553   0.58158
 Alpha virt. eigenvalues --    0.58786   0.60322   0.60657   0.61469   0.62203
 Alpha virt. eigenvalues --    0.62917   0.63392   0.65094   0.65232   0.66176
 Alpha virt. eigenvalues --    0.66659   0.67943   0.68586   0.69392   0.69673
 Alpha virt. eigenvalues --    0.70268   0.70982   0.71614   0.72378   0.72862
 Alpha virt. eigenvalues --    0.73378   0.73928   0.74429   0.75682   0.77103
 Alpha virt. eigenvalues --    0.77313   0.78345   0.78770   0.80424   0.81148
 Alpha virt. eigenvalues --    0.81933   0.83994   0.85387   0.86410   0.87480
 Alpha virt. eigenvalues --    0.88450   0.88820   0.91963   0.93471   0.94350
 Alpha virt. eigenvalues --    0.94416   0.95204   0.97779   0.98357   0.98702
 Alpha virt. eigenvalues --    0.99236   1.01007   1.01627   1.03517   1.04603
 Alpha virt. eigenvalues --    1.04916   1.05700   1.06913   1.07401   1.10551
 Alpha virt. eigenvalues --    1.11516   1.12385   1.13538   1.14831   1.15633
 Alpha virt. eigenvalues --    1.17065   1.17432   1.18288   1.19139   1.19485
 Alpha virt. eigenvalues --    1.21172   1.23607   1.24095   1.27458   1.30798
 Alpha virt. eigenvalues --    1.31687   1.32260   1.33103   1.35988   1.37505
 Alpha virt. eigenvalues --    1.38551   1.43530   1.45489   1.46450   1.50939
 Alpha virt. eigenvalues --    1.50988   1.51518   1.52451   1.53312   1.53820
 Alpha virt. eigenvalues --    1.55286   1.58457   1.58597   1.59521   1.60219
 Alpha virt. eigenvalues --    1.61324   1.63661   1.64237   1.64745   1.64935
 Alpha virt. eigenvalues --    1.66758   1.68372   1.68484   1.69014   1.69815
 Alpha virt. eigenvalues --    1.71112   1.73420   1.73994   1.75725   1.77255
 Alpha virt. eigenvalues --    1.77915   1.79033   1.81163   1.81740   1.82551
 Alpha virt. eigenvalues --    1.83069   1.85320   1.86766   1.86976   1.90900
 Alpha virt. eigenvalues --    1.92368   1.94808   1.95747   1.96011   1.98273
 Alpha virt. eigenvalues --    1.99500   2.02611   2.03328   2.03887   2.04556
 Alpha virt. eigenvalues --    2.06529   2.07744   2.07988   2.08711   2.12208
 Alpha virt. eigenvalues --    2.12934   2.14136   2.15230   2.18149   2.18874
 Alpha virt. eigenvalues --    2.20401   2.21645   2.24746   2.25576   2.26349
 Alpha virt. eigenvalues --    2.28385   2.30528   2.32237   2.35659   2.40561
 Alpha virt. eigenvalues --    2.40644   2.43063   2.47087   2.48094   2.50827
 Alpha virt. eigenvalues --    2.52169   2.53824   2.56182   2.56496   2.58221
 Alpha virt. eigenvalues --    2.60501   2.63499   2.65458   2.67358   2.69527
 Alpha virt. eigenvalues --    2.72039   2.72176   2.72771   2.73313   2.76287
 Alpha virt. eigenvalues --    2.77831   2.78664   2.79025   2.81212   2.82455
 Alpha virt. eigenvalues --    2.83306   2.84097   2.84816   2.86241   2.88360
 Alpha virt. eigenvalues --    2.88786   2.90304   2.93157   2.94491   2.95106
 Alpha virt. eigenvalues --    2.96793   2.98710   3.02467   3.03239   3.08027
 Alpha virt. eigenvalues --    3.11529   3.14121   3.16486   3.17614   3.19760
 Alpha virt. eigenvalues --    3.20776   3.22935   3.23976   3.27526   3.29662
 Alpha virt. eigenvalues --    3.29972   3.32326   3.37858   3.42119   3.46164
 Alpha virt. eigenvalues --    3.50696   3.57197   3.60248   3.62100   3.66668
 Alpha virt. eigenvalues --    3.68835   3.72111   3.74737   3.79959   3.81582
 Alpha virt. eigenvalues --    3.82319   3.84680   3.86582   3.87341   3.88950
 Alpha virt. eigenvalues --    3.94275   3.95566   3.95778   4.02537   4.07180
 Alpha virt. eigenvalues --    4.09575   4.12822   4.17468   4.21538   4.27651
 Alpha virt. eigenvalues --    4.28972   4.39248   4.64121   4.94671   4.96466
 Alpha virt. eigenvalues --    4.99444   5.12500   5.17585   5.18501   5.42632
 Alpha virt. eigenvalues --    5.61009   5.89145   5.92941   6.43741   6.57885
 Alpha virt. eigenvalues --    6.87526  23.70065  23.94330  24.01551  24.03189
 Alpha virt. eigenvalues --   24.06196  24.07999  24.09206  24.14966  24.23472
 Alpha virt. eigenvalues --   24.29934  24.32054  35.70933  50.12609  50.19072
 Alpha virt. eigenvalues --   66.95261
          Condensed to atoms (all electrons):
               1          2          3          4          5          6
     1  C    5.264362   0.387408   0.416619  -0.069464   0.012826   0.240821
     2  H    0.387408   0.460428  -0.015624   0.001501  -0.005501  -0.045096
     3  H    0.416619  -0.015624   0.513276  -0.008260  -0.000039  -0.049221
     4  C   -0.069464   0.001501  -0.008260   5.183787   0.399055   0.247802
     5  H    0.012826  -0.005501  -0.000039   0.399055   0.539632  -0.044880
     6  N    0.240821  -0.045096  -0.049221   0.247802  -0.044880   6.794110
     7  H    0.414529  -0.021422  -0.051282   0.009422   0.001888  -0.031065
     8  H   -0.001974   0.003598  -0.000736   0.411507  -0.030424  -0.094035
     9  H   -0.013796  -0.003772   0.003239   0.409897  -0.058830  -0.041677
    10  C    0.155802   0.016316  -0.011311  -0.073879  -0.033128   0.215360
    11  H    0.007847  -0.001311  -0.001954  -0.030940   0.004979  -0.057734
    12  C    0.144506   0.032084  -0.004183  -0.044947   0.009708  -0.234316
    13  C   -0.281771  -0.016040   0.016186  -0.090574   0.002379   0.015074
    14  H    0.009025   0.001283  -0.014193  -0.000477   0.001071  -0.004578
    15  O   -0.001035   0.000070   0.000204  -0.000777  -0.000103   0.002965
    16  C   -0.192049  -0.004344  -0.000787   0.002250  -0.000970  -0.007043
    17  C   -0.023708   0.000644  -0.001382  -0.003684  -0.000365   0.005885
    18  C   -0.004970  -0.004652   0.007125  -0.012077   0.000559  -0.027600
    19  O   -0.000102  -0.000006   0.000047   0.000271   0.000007  -0.000158
    20  C    0.005862   0.000305  -0.000732  -0.000384   0.000014  -0.000257
    21  C   -0.009225  -0.000574   0.000538   0.001344  -0.000054   0.004184
    22  H    0.004449   0.000109   0.001831  -0.002494  -0.000044  -0.014067
    23  H   -0.000942  -0.000083   0.000083  -0.000100   0.000004  -0.000229
    24  H    0.000091   0.000004  -0.000010   0.000008   0.000000  -0.000031
    25  C   -0.010106  -0.000405  -0.000137  -0.000141  -0.000013   0.003216
    26  F   -0.000190  -0.000011  -0.000061   0.000000   0.000000   0.000006
    27  H   -0.000203  -0.000009   0.000009   0.000005   0.000000   0.000028
               7          8          9         10         11         12
     1  C    0.414529  -0.001974  -0.013796   0.155802   0.007847   0.144506
     2  H   -0.021422   0.003598  -0.003772   0.016316  -0.001311   0.032084
     3  H   -0.051282  -0.000736   0.003239  -0.011311  -0.001954  -0.004183
     4  C    0.009422   0.411507   0.409897  -0.073879  -0.030940  -0.044947
     5  H    0.001888  -0.030424  -0.058830  -0.033128   0.004979   0.009708
     6  N   -0.031065  -0.094035  -0.041677   0.215360  -0.057734  -0.234316
     7  H    0.529237  -0.003180  -0.001407   0.023513   0.002909  -0.035913
     8  H   -0.003180   0.532120  -0.024044   0.058618  -0.011082   0.002088
     9  H   -0.001407  -0.024044   0.538746  -0.008848   0.001064   0.009053
    10  C    0.023513   0.058618  -0.008848  11.085347   0.357959   2.988547
    11  H    0.002909  -0.011082   0.001064   0.357959   0.461178   0.055130
    12  C   -0.035913   0.002088   0.009053   2.988547   0.055130  11.800967
    13  C   -0.025461   0.002437   0.001557  -3.526669   0.054765   0.968869
    14  H    0.006485  -0.001665   0.000064   0.187242  -0.002618   0.554853
    15  O    0.000685   0.000321   0.000081  -0.004513   0.011943  -0.223991
    16  C   -0.008009   0.005531   0.000960  -2.597085  -0.072055  -4.016105
    17  C   -0.001881   0.003716  -0.000240  -1.502050  -0.069991  -3.157132
    18  C    0.001362  -0.004241   0.000518  -1.452230   0.053035  -1.380614
    19  O    0.000032  -0.000095   0.000002   0.004291   0.000200  -0.044166
    20  C   -0.000694   0.000085  -0.000013  -0.121781  -0.002657   0.121353
    21  C    0.002292   0.000046  -0.000016   0.177976  -0.000577  -0.332994
    22  H   -0.002093   0.000091   0.000009  -0.157964   0.003974  -0.087637
    23  H   -0.000013   0.000005   0.000034  -0.016529   0.000985   0.004705
    24  H   -0.000014   0.000002   0.000000   0.001173  -0.000101   0.008989
    25  C   -0.000098   0.000087   0.000007  -0.188482  -0.004276  -0.702947
    26  F   -0.000085   0.000000   0.000000  -0.001203  -0.000054   0.003917
    27  H    0.000009   0.000001   0.000000  -0.002357  -0.000061  -0.016234
              13         14         15         16         17         18
     1  C   -0.281771   0.009025  -0.001035  -0.192049  -0.023708  -0.004970
     2  H   -0.016040   0.001283   0.000070  -0.004344   0.000644  -0.004652
     3  H    0.016186  -0.014193   0.000204  -0.000787  -0.001382   0.007125
     4  C   -0.090574  -0.000477  -0.000777   0.002250  -0.003684  -0.012077
     5  H    0.002379   0.001071  -0.000103  -0.000970  -0.000365   0.000559
     6  N    0.015074  -0.004578   0.002965  -0.007043   0.005885  -0.027600
     7  H   -0.025461   0.006485   0.000685  -0.008009  -0.001881   0.001362
     8  H    0.002437  -0.001665   0.000321   0.005531   0.003716  -0.004241
     9  H    0.001557   0.000064   0.000081   0.000960  -0.000240   0.000518
    10  C   -3.526669   0.187242  -0.004513  -2.597085  -1.502050  -1.452230
    11  H    0.054765  -0.002618   0.011943  -0.072055  -0.069991   0.053035
    12  C    0.968869   0.554853  -0.223991  -4.016105  -3.157132  -1.380614
    13  C   12.754405  -0.053619   0.890711   1.464146  -3.847084  -0.037078
    14  H   -0.053619   0.797830  -0.020523   0.107404   0.018304  -0.679578
    15  O    0.890711  -0.020523   8.218425  -0.151029  -0.198848  -0.143236
    16  C    1.464146   0.107404  -0.151029  17.939950   1.350751  -6.413644
    17  C   -3.847084   0.018304  -0.198848   1.350751  15.543129  -4.099772
    18  C   -0.037078  -0.679578  -0.143236  -6.413644  -4.099772  21.286543
    19  O   -0.072814  -0.002092  -0.004898   0.089134   0.330829   0.006883
    20  C   -0.523978  -0.009321  -0.036865  -2.550340   0.692000   1.033580
    21  C   -0.307414  -0.026695   0.007498  -1.352161   0.391878   0.899128
    22  H   -0.033067  -0.168810   0.006576  -0.513415   0.007445   1.546002
    23  H    0.024704  -0.004464   0.070649  -0.148448  -0.005737   0.067966
    24  H    0.015999  -0.000725   0.001387  -0.094288  -0.133041   0.055965
    25  C   -0.970539   0.137184  -0.037882   1.116899   0.502273  -2.676682
    26  F    0.011195   0.017602  -0.000001   0.117023   0.011771  -0.166584
    27  H   -0.015550   0.001884  -0.000343   0.109304   0.057103  -0.164373
              19         20         21         22         23         24
     1  C   -0.000102   0.005862  -0.009225   0.004449  -0.000942   0.000091
     2  H   -0.000006   0.000305  -0.000574   0.000109  -0.000083   0.000004
     3  H    0.000047  -0.000732   0.000538   0.001831   0.000083  -0.000010
     4  C    0.000271  -0.000384   0.001344  -0.002494  -0.000100   0.000008
     5  H    0.000007   0.000014  -0.000054  -0.000044   0.000004   0.000000
     6  N   -0.000158  -0.000257   0.004184  -0.014067  -0.000229  -0.000031
     7  H    0.000032  -0.000694   0.002292  -0.002093  -0.000013  -0.000014
     8  H   -0.000095   0.000085   0.000046   0.000091   0.000005   0.000002
     9  H    0.000002  -0.000013  -0.000016   0.000009   0.000034   0.000000
    10  C    0.004291  -0.121781   0.177976  -0.157964  -0.016529   0.001173
    11  H    0.000200  -0.002657  -0.000577   0.003974   0.000985  -0.000101
    12  C   -0.044166   0.121353  -0.332994  -0.087637   0.004705   0.008989
    13  C   -0.072814  -0.523978  -0.307414  -0.033067   0.024704   0.015999
    14  H   -0.002092  -0.009321  -0.026695  -0.168810  -0.004464  -0.000725
    15  O   -0.004898  -0.036865   0.007498   0.006576   0.070649   0.001387
    16  C    0.089134  -2.550340  -1.352161  -0.513415  -0.148448  -0.094288
    17  C    0.330829   0.692000   0.391878   0.007445  -0.005737  -0.133041
    18  C    0.006883   1.033580   0.899128   1.546002   0.067966   0.055965
    19  O    8.158789  -0.379264   0.006626  -0.000898   0.254916  -0.023406
    20  C   -0.379264   7.767441  -0.146365   0.081694   0.069664   0.530017
    21  C    0.006626  -0.146365   8.858566  -0.079773   0.010614   0.040267
    22  H   -0.000898   0.081694  -0.079773   0.675985   0.004954   0.003954
    23  H    0.254916   0.069664   0.010614   0.004954   0.301203   0.001842
    24  H   -0.023406   0.530017   0.040267   0.003954   0.001842   0.440498
    25  C    0.013581  -0.020371  -1.735769  -0.397968  -0.005300  -0.094867
    26  F    0.000144   0.003657   0.359892  -0.076463   0.000147   0.001109
    27  H    0.001131  -0.050096  -0.211091  -0.010294  -0.000434  -0.012272
              25         26         27
     1  C   -0.010106  -0.000190  -0.000203
     2  H   -0.000405  -0.000011  -0.000009
     3  H   -0.000137  -0.000061   0.000009
     4  C   -0.000141   0.000000   0.000005
     5  H   -0.000013   0.000000   0.000000
     6  N    0.003216   0.000006   0.000028
     7  H   -0.000098  -0.000085   0.000009
     8  H    0.000087   0.000000   0.000001
     9  H    0.000007   0.000000   0.000000
    10  C   -0.188482  -0.001203  -0.002357
    11  H   -0.004276  -0.000054  -0.000061
    12  C   -0.702947   0.003917  -0.016234
    13  C   -0.970539   0.011195  -0.015550
    14  H    0.137184   0.017602   0.001884
    15  O   -0.037882  -0.000001  -0.000343
    16  C    1.116899   0.117023   0.109304
    17  C    0.502273   0.011771   0.057103
    18  C   -2.676682  -0.166584  -0.164373
    19  O    0.013581   0.000144   0.001131
    20  C   -0.020371   0.003657  -0.050096
    21  C   -1.735769   0.359892  -0.211091
    22  H   -0.397968  -0.076463  -0.010294
    23  H   -0.005300   0.000147  -0.000434
    24  H   -0.094867   0.001109  -0.012272
    25  C   10.586294  -0.232206   0.620116
    26  F   -0.232206   9.146716  -0.021745
    27  H    0.620116  -0.021745   0.440049
 Mulliken charges:
               1
     1  C   -0.454612
     2  H    0.215101
     3  H    0.200754
     4  C   -0.328652
     5  H    0.202226
     6  N    0.122536
     7  H    0.190253
     8  H    0.151224
     9  H    0.187410
    10  C    0.425886
    11  H    0.239441
    12  C   -0.423592
    13  C   -0.420766
    14  H    0.149127
    15  O   -0.387470
    16  C    1.818420
    17  C    0.129185
    18  C   -1.691335
    19  O   -0.338985
    20  C   -0.462554
    21  C   -0.558144
    22  H    0.207912
    23  H    0.369803
    24  H    0.257451
    25  C    0.098533
    26  F   -0.174576
    27  H    0.275424
 Sum of Mulliken charges =   0.00000
 Mulliken charges with hydrogens summed into heavy atoms:
               1
     1  C    0.151496
     4  C    0.212208
     6  N    0.122536
    10  C    0.665328
    12  C   -0.274465
    13  C   -0.420766
    15  O   -0.387470
    16  C    1.818420
    17  C    0.129185
    18  C   -1.483423
    19  O    0.030818
    20  C   -0.205103
    21  C   -0.558144
    25  C    0.373957
    26  F   -0.174576
 Electronic spatial extent (au):  <R**2>=           4473.4646
 Charge=              0.0000 electrons
 Dipole moment (field-independent basis, Debye):
    X=              7.3086    Y=              3.5078    Z=             -0.1756  Tot=              8.1087
 Quadrupole moment (field-independent basis, Debye-Ang):
   XX=            -52.7007   YY=            -97.7877   ZZ=            -90.9359
   XY=              5.3682   XZ=             -0.5709   YZ=              0.3077
 Traceless Quadrupole moment (field-independent basis, Debye-Ang):
   XX=             27.7740   YY=            -17.3129   ZZ=            -10.4611
   XY=              5.3682   XZ=             -0.5709   YZ=              0.3077
 Octapole moment (field-independent basis, Debye-Ang**2):
  XXX=            116.8934  YYY=             21.6819  ZZZ=             -0.6855  XYY=             44.4789
  XXY=              7.4081  XXZ=             -2.9351  XZZ=              3.9014  YZZ=              3.4339
  YYZ=              0.3466  XYZ=              0.8009
 Hexadecapole moment (field-independent basis, Debye-Ang**3):
 XXXX=          -3462.4020 YYYY=          -1245.3048 ZZZZ=           -110.5863 XXXY=             25.7830
 XXXZ=             -2.7886 YYYX=              3.6770 YYYZ=              0.9379 ZZZX=             -3.5857
 ZZZY=             -0.7376 XXYY=           -964.8228 XXZZ=           -796.4780 YYZZ=           -210.4501
 XXYZ=              4.5239 YYXZ=              1.4068 ZZXY=            -11.8690
 N-N= 9.441821318563D+02 E-N=-3.599648265151D+03  KE= 7.287001713347D+02
 1\1\GINC-DN57\SP\RwB97XD TD-FC\6-311++G(d,p)\C11H12F1N1O2\CA12053\21-O
 ct-2016\0\\# wb97xd 6-311++g** td=(singlets,nstates=5) geom=allcheck S
 CRF=(PCM,solvent=dichloromethane)\\Geom Opt s0\\0,1\C,0,-3.7497500938,
 2.2477261113,-0.0477358847\H,0,-4.760930778,2.6353905289,-0.1690087674
 \H,0,-3.3346317531,2.6352603705,0.8901579266\C,0,-5.0749702971,0.15158
 81028,0.1050470675\H,0,-5.5166669207,0.3722196708,1.0832300979\N,0,-3.
 7867462409,0.7996955378,-0.0493909661\H,0,-3.1371688843,2.613627651,-0
 .8768660719\H,0,-4.9523518728,-0.9275553298,0.0163651984\H,0,-5.766204
 0188,0.4857430881,-0.6737075207\C,0,-2.6461566408,0.0944784944,-0.0252
 773018\H,0,-2.7624261444,-0.9852157638,-0.0083141285\C,0,-1.3768665083
 ,0.5888052813,-0.0282412204\C,0,-0.2770236565,-0.3531171977,-0.0266368
 91\H,0,-1.1924608029,1.6518379,-0.0214372282\O,0,-0.4844265837,-1.5790
 718436,-0.0366200967\C,0,1.1291795768,0.136525687,-0.0088074031\C,0,2.
 18785849,-0.7998937225,0.0028409679\C,0,1.4482970133,1.5042867319,-0.0
 03734534\O,0,1.9897290207,-2.1201741444,-0.0019260643\C,0,3.5148886085
 ,-0.3502429276,0.0201183444\C,0,2.7585672358,1.9087927153,0.0128596968
 \H,0,0.6802384979,2.2652000013,-0.0129522062\H,0,1.0126835392,-2.25297
 1295,-0.0170412867\H,0,4.3031625734,-1.0927042093,0.0288906047\C,0,3.8
 057799256,0.9977912077,0.0251756413\F,0,3.041247033,3.2308152197,0.017
 271252\H,0,4.828705601,1.3541185017,0.0385236208\\Version=ES64L-G09Rev
 D.01\State=1-A\HF=-731.4037398\RMSD=9.873e-09\PG=C01 [X(C11H12F1N1O2)]
 \\@


 GETTING A SIMPLE ANSWER FROM A PROFESSOR IS LIKE
 GETTING A THIMBLE OF WATER FROM A FIRE HYDRANT.
     -- PROF. LEN SHAPIRO, NDSU
 Job cpu time:       0 days  2 hours  7 minutes 21.2 seconds.
 File lengths (MBytes):  RWF=    461 Int=      0 D2E=      0 Chk=     39 Scr=      1
 Normal termination of Gaussian 09 at Fri Oct 21 16:41:11 2016.
