 Entering Gaussian System, Link 0=g09
 Input=4_optS1_DCM.com
 Output=4_optS1_DCM.out
 Initial command:
 /share/apps/gaussian/g09_D01/g09/l1.exe "/tmp/3908085.1.smserial.q/Gau-54712.inp" -scrdir="/tmp/3908085.1.smserial.q/"
 Entering Link 1 = /share/apps/gaussian/g09_D01/g09/l1.exe PID=     54713.
  
 Copyright (c) 1988,1990,1992,1993,1995,1998,2003,2009,2013,
            Gaussian, Inc.  All Rights Reserved.
  
 This is part of the Gaussian(R) 09 program.  It is based on
 the Gaussian(R) 03 system (copyright 2003, Gaussian, Inc.),
 the Gaussian(R) 98 system (copyright 1998, Gaussian, Inc.),
 the Gaussian(R) 94 system (copyright 1995, Gaussian, Inc.),
 the Gaussian 92(TM) system (copyright 1992, Gaussian, Inc.),
 the Gaussian 90(TM) system (copyright 1990, Gaussian, Inc.),
 the Gaussian 88(TM) system (copyright 1988, Gaussian, Inc.),
 the Gaussian 86(TM) system (copyright 1986, Carnegie Mellon
 University), and the Gaussian 82(TM) system (copyright 1983,
 Carnegie Mellon University). Gaussian is a federally registered
 trademark of Gaussian, Inc.
  
 This software contains proprietary and confidential information,
 including trade secrets, belonging to Gaussian, Inc.
  
 This software is provided under written license and may be
 used, copied, transmitted, or stored only in accord with that
 written license.
  
 The following legend is applicable only to US Government
 contracts under FAR:
  
                    RESTRICTED RIGHTS LEGEND
  
 Use, reproduction and disclosure by the US Government is
 subject to restrictions as set forth in subparagraphs (a)
 and (c) of the Commercial Computer Software - Restricted
 Rights clause in FAR 52.227-19.
  
 Gaussian, Inc.
 340 Quinnipiac St., Bldg. 40, Wallingford CT 06492
  
  
 ---------------------------------------------------------------
 Warning -- This program may not be used in any manner that
 competes with the business of Gaussian, Inc. or will provide
 assistance to any competitor of Gaussian, Inc.  The licensee
 of this program is prohibited from giving any competitor of
 Gaussian, Inc. access to this program.  By using this program,
 the user acknowledges that Gaussian, Inc. is engaged in the
 business of creating and licensing software in the field of
 computational chemistry and represents and warrants to the
 licensee that it is not a competitor of Gaussian, Inc. and that
 it will not use this program in any manner prohibited above.
 ---------------------------------------------------------------
  

 Cite this work as:
 Gaussian 09, Revision D.01,
 M. J. Frisch, G. W. Trucks, H. B. Schlegel, G. E. Scuseria, 
 M. A. Robb, J. R. Cheeseman, G. Scalmani, V. Barone, B. Mennucci, 
 G. A. Petersson, H. Nakatsuji, M. Caricato, X. Li, H. P. Hratchian, 
 A. F. Izmaylov, J. Bloino, G. Zheng, J. L. Sonnenberg, M. Hada, 
 M. Ehara, K. Toyota, R. Fukuda, J. Hasegawa, M. Ishida, T. Nakajima, 
 Y. Honda, O. Kitao, H. Nakai, T. Vreven, J. A. Montgomery, Jr., 
 J. E. Peralta, F. Ogliaro, M. Bearpark, J. J. Heyd, E. Brothers, 
 K. N. Kudin, V. N. Staroverov, T. Keith, R. Kobayashi, J. Normand, 
 K. Raghavachari, A. Rendell, J. C. Burant, S. S. Iyengar, J. Tomasi, 
 M. Cossi, N. Rega, J. M. Millam, M. Klene, J. E. Knox, J. B. Cross, 
 V. Bakken, C. Adamo, J. Jaramillo, R. Gomperts, R. E. Stratmann, 
 O. Yazyev, A. J. Austin, R. Cammi, C. Pomelli, J. W. Ochterski, 
 R. L. Martin, K. Morokuma, V. G. Zakrzewski, G. A. Voth, 
 P. Salvador, J. J. Dannenberg, S. Dapprich, A. D. Daniels, 
 O. Farkas, J. B. Foresman, J. V. Ortiz, J. Cioslowski, 
 and D. J. Fox, Gaussian, Inc., Wallingford CT, 2013.
 
 ******************************************
 Gaussian 09:  ES64L-G09RevD.01 24-Apr-2013
                30-Jan-2017 
 ******************************************
 %chk=4_optS1_DCM.chk
 %mem=12GB
 %nproc=4
 Will use up to    4 processors via shared memory.
 ----------------------------------------------------------------------
 # wb97xd 6-311++g** opt td=(nstates=1,root=1) SCRF=(PCM,solvent=dichlo
 romethane)
 ----------------------------------------------------------------------
 1/14=-1,18=20,19=15,26=3,38=1/1,3;
 2/9=110,12=2,17=6,18=5,40=1/2;
 3/5=4,6=6,7=1111,11=9,16=1,25=1,30=1,70=2201,71=1,72=9,74=-58/1,2,8,3;
 4//1;
 5/5=2,38=5,53=9/2;
 8/6=1,10=2,107=1,108=1/1;
 9/8=1,15=2,41=1,42=1,70=2/14;
 10/5=4/2;
 6/7=2,8=2,9=2,10=2/1;
 7/12=6,13=5,14=1/1,2,3,16;
 1/14=-1,18=20,19=15,26=3/3(2);
 2/9=110/2;
 99//99;
 2/9=110/2;
 3/5=4,6=6,7=1111,11=9,16=1,25=1,30=1,70=2205,71=1,72=9,74=-58/1,2,8,3;
 4/5=5,16=3,69=1/1;
 5/5=2,38=5,53=9/2;
 8/6=1,10=2,107=1,108=1/1;
 9/8=1,15=2,41=1,42=1,49=4,70=2/14;
 10/5=4/2;
 7/12=6,13=5,14=1/1,2,3,16;
 1/14=-1,18=20,19=15,26=3/3(-8);
 2/9=110/2;
 6/7=2,8=2,9=2,10=2/1;
 99//99;
 -------------
 restarted opt
 -------------
 Symbolic Z-matrix:
 Charge =  0 Multiplicity = 1
 C                    -3.66759   0.93327  -1.58164 
 H                    -4.63794   1.04084  -2.06794 
 H                    -3.25532   1.9377   -1.3979 
 C                    -5.04753   0.41093   0.37776 
 H                    -5.08277   1.41933   0.81606 
 N                    -3.82683   0.17357  -0.36478 
 H                    -3.00129   0.40683  -2.26859 
 H                    -5.1297   -0.3171    1.18648 
 H                    -5.91075   0.28726  -0.27997 
 C                    -2.70859  -0.1791    0.35212 
 H                    -2.90774  -0.67637   1.29312 
 C                    -1.40298   0.00492  -0.04368 
 C                    -0.30421  -0.43963   0.67409 
 H                    -1.18462   0.52381  -0.9693 
 O                    -0.4841   -1.01229   1.90586 
 C                     1.09397  -0.21379   0.24592 
 C                     1.78     -1.28622  -0.45723 
 C                     1.76459   0.95817   0.53949 
 O                     1.22539  -2.38612  -0.63892 
 C                     3.13904  -1.03936  -0.89788 
 C                     3.06833   1.12054   0.10208 
 H                     1.27991   1.75922   1.08313 
 H                    -0.38001  -1.87151   1.49226 
 H                     3.63407  -1.83158  -1.44625 
 C                     3.76707   0.13802  -0.6211 
 F                     3.69841   2.26794   0.36418 
 H                     4.78392   0.33983  -0.93492 
 

 GradGradGradGradGradGradGradGradGradGradGradGradGradGradGradGradGradGrad
 Berny optimization.
 Initialization pass.
                           ----------------------------
                           !    Initial Parameters    !
                           ! (Angstroms and Degrees)  !
 --------------------------                            --------------------------
 ! Name  Definition              Value          Derivative Info.                !
 --------------------------------------------------------------------------------
 ! R1    R(1,2)                  1.0907         estimate D2E/DX2                !
 ! R2    R(1,3)                  1.1012         estimate D2E/DX2                !
 ! R3    R(1,6)                  1.4433         estimate D2E/DX2                !
 ! R4    R(1,7)                  1.0922         estimate D2E/DX2                !
 ! R5    R(4,5)                  1.1001         estimate D2E/DX2                !
 ! R6    R(4,6)                  1.4484         estimate D2E/DX2                !
 ! R7    R(4,8)                  1.0912         estimate D2E/DX2                !
 ! R8    R(4,9)                  1.0923         estimate D2E/DX2                !
 ! R9    R(6,10)                 1.3743         estimate D2E/DX2                !
 ! R10   R(10,11)                1.0828         estimate D2E/DX2                !
 ! R11   R(10,12)                1.3766         estimate D2E/DX2                !
 ! R12   R(12,13)                1.3857         estimate D2E/DX2                !
 ! R13   R(12,14)                1.0834         estimate D2E/DX2                !
 ! R14   R(13,15)                1.3702         estimate D2E/DX2                !
 ! R15   R(13,16)                1.4796         estimate D2E/DX2                !
 ! R16   R(15,23)                0.9592         estimate D2E/DX2                !
 ! R17   R(16,17)                1.4544         estimate D2E/DX2                !
 ! R18   R(16,18)                1.3818         estimate D2E/DX2                !
 ! R19   R(17,19)                1.2451         estimate D2E/DX2                !
 ! R20   R(17,20)                1.4499         estimate D2E/DX2                !
 ! R21   R(18,21)                1.3847         estimate D2E/DX2                !
 ! R22   R(18,22)                1.0827         estimate D2E/DX2                !
 ! R23   R(20,24)                1.0832         estimate D2E/DX2                !
 ! R24   R(20,25)                1.3628         estimate D2E/DX2                !
 ! R25   R(21,25)                1.4059         estimate D2E/DX2                !
 ! R26   R(21,26)                1.335          estimate D2E/DX2                !
 ! R27   R(25,27)                1.0831         estimate D2E/DX2                !
 ! A1    A(2,1,3)              108.5127         estimate D2E/DX2                !
 ! A2    A(2,1,6)              109.2479         estimate D2E/DX2                !
 ! A3    A(2,1,7)              108.0494         estimate D2E/DX2                !
 ! A4    A(3,1,6)              112.3788         estimate D2E/DX2                !
 ! A5    A(3,1,7)              108.4318         estimate D2E/DX2                !
 ! A6    A(6,1,7)              110.1124         estimate D2E/DX2                !
 ! A7    A(5,4,6)              112.4249         estimate D2E/DX2                !
 ! A8    A(5,4,8)              108.2925         estimate D2E/DX2                !
 ! A9    A(5,4,9)              108.5653         estimate D2E/DX2                !
 ! A10   A(6,4,8)              109.5159         estimate D2E/DX2                !
 ! A11   A(6,4,9)              109.8038         estimate D2E/DX2                !
 ! A12   A(8,4,9)              108.1325         estimate D2E/DX2                !
 ! A13   A(1,6,4)              116.0368         estimate D2E/DX2                !
 ! A14   A(1,6,10)             119.0175         estimate D2E/DX2                !
 ! A15   A(4,6,10)             117.4121         estimate D2E/DX2                !
 ! A16   A(6,10,11)            114.9309         estimate D2E/DX2                !
 ! A17   A(6,10,12)            125.9731         estimate D2E/DX2                !
 ! A18   A(11,10,12)           119.0575         estimate D2E/DX2                !
 ! A19   A(10,12,13)           124.0711         estimate D2E/DX2                !
 ! A20   A(10,12,14)           120.0548         estimate D2E/DX2                !
 ! A21   A(13,12,14)           115.8739         estimate D2E/DX2                !
 ! A22   A(12,13,15)           119.7106         estimate D2E/DX2                !
 ! A23   A(12,13,16)           123.3978         estimate D2E/DX2                !
 ! A24   A(15,13,16)           116.6143         estimate D2E/DX2                !
 ! A25   A(13,15,23)            88.4247         estimate D2E/DX2                !
 ! A26   A(13,16,17)           118.2359         estimate D2E/DX2                !
 ! A27   A(13,16,18)           121.775          estimate D2E/DX2                !
 ! A28   A(17,16,18)           119.9467         estimate D2E/DX2                !
 ! A29   A(16,17,19)           120.7846         estimate D2E/DX2                !
 ! A30   A(16,17,20)           117.6163         estimate D2E/DX2                !
 ! A31   A(19,17,20)           121.5723         estimate D2E/DX2                !
 ! A32   A(16,18,21)           119.2931         estimate D2E/DX2                !
 ! A33   A(16,18,22)           121.1275         estimate D2E/DX2                !
 ! A34   A(21,18,22)           119.5615         estimate D2E/DX2                !
 ! A35   A(17,20,24)           117.2389         estimate D2E/DX2                !
 ! A36   A(17,20,25)           121.154          estimate D2E/DX2                !
 ! A37   A(24,20,25)           121.6048         estimate D2E/DX2                !
 ! A38   A(18,21,25)           123.2628         estimate D2E/DX2                !
 ! A39   A(18,21,26)           118.8905         estimate D2E/DX2                !
 ! A40   A(25,21,26)           117.8438         estimate D2E/DX2                !
 ! A41   A(20,25,21)           118.6328         estimate D2E/DX2                !
 ! A42   A(20,25,27)           122.3278         estimate D2E/DX2                !
 ! A43   A(21,25,27)           119.0389         estimate D2E/DX2                !
 ! D1    D(2,1,6,4)            -36.479          estimate D2E/DX2                !
 ! D2    D(2,1,6,10)           174.5473         estimate D2E/DX2                !
 ! D3    D(3,1,6,4)             84.0168         estimate D2E/DX2                !
 ! D4    D(3,1,6,10)           -64.957          estimate D2E/DX2                !
 ! D5    D(7,1,6,4)           -154.992          estimate D2E/DX2                !
 ! D6    D(7,1,6,10)            56.0343         estimate D2E/DX2                !
 ! D7    D(5,4,6,1)            -68.0486         estimate D2E/DX2                !
 ! D8    D(5,4,6,10)            81.438          estimate D2E/DX2                !
 ! D9    D(8,4,6,1)            171.52           estimate D2E/DX2                !
 ! D10   D(8,4,6,10)           -38.9935         estimate D2E/DX2                !
 ! D11   D(9,4,6,1)             52.9279         estimate D2E/DX2                !
 ! D12   D(9,4,6,10)          -157.5855         estimate D2E/DX2                !
 ! D13   D(1,6,10,11)          175.2236         estimate D2E/DX2                !
 ! D14   D(1,6,10,12)           -7.0685         estimate D2E/DX2                !
 ! D15   D(4,6,10,11)           26.6698         estimate D2E/DX2                !
 ! D16   D(4,6,10,12)         -155.6223         estimate D2E/DX2                !
 ! D17   D(6,10,12,13)        -175.8807         estimate D2E/DX2                !
 ! D18   D(6,10,12,14)           4.0065         estimate D2E/DX2                !
 ! D19   D(11,10,12,13)          1.7415         estimate D2E/DX2                !
 ! D20   D(11,10,12,14)       -178.3713         estimate D2E/DX2                !
 ! D21   D(10,12,13,15)         -5.1994         estimate D2E/DX2                !
 ! D22   D(10,12,13,16)       -178.9402         estimate D2E/DX2                !
 ! D23   D(14,12,13,15)        174.9091         estimate D2E/DX2                !
 ! D24   D(14,12,13,16)          1.1683         estimate D2E/DX2                !
 ! D25   D(12,13,15,23)        100.8683         estimate D2E/DX2                !
 ! D26   D(16,13,15,23)        -84.9751         estimate D2E/DX2                !
 ! D27   D(12,13,16,17)        -97.7944         estimate D2E/DX2                !
 ! D28   D(12,13,16,18)         84.5767         estimate D2E/DX2                !
 ! D29   D(15,13,16,17)         88.2855         estimate D2E/DX2                !
 ! D30   D(15,13,16,18)        -89.3433         estimate D2E/DX2                !
 ! D31   D(13,16,17,19)         -3.2499         estimate D2E/DX2                !
 ! D32   D(13,16,17,20)        178.6041         estimate D2E/DX2                !
 ! D33   D(18,16,17,19)        174.4237         estimate D2E/DX2                !
 ! D34   D(18,16,17,20)         -3.7222         estimate D2E/DX2                !
 ! D35   D(13,16,18,21)       -179.3687         estimate D2E/DX2                !
 ! D36   D(13,16,18,22)         -0.9134         estimate D2E/DX2                !
 ! D37   D(17,16,18,21)          3.0422         estimate D2E/DX2                !
 ! D38   D(17,16,18,22)       -178.5025         estimate D2E/DX2                !
 ! D39   D(16,17,20,24)       -178.2592         estimate D2E/DX2                !
 ! D40   D(16,17,20,25)          2.2846         estimate D2E/DX2                !
 ! D41   D(19,17,20,24)          3.6104         estimate D2E/DX2                !
 ! D42   D(19,17,20,25)       -175.8459         estimate D2E/DX2                !
 ! D43   D(16,18,21,25)         -0.8626         estimate D2E/DX2                !
 ! D44   D(16,18,21,26)        178.5088         estimate D2E/DX2                !
 ! D45   D(22,18,21,25)       -179.3424         estimate D2E/DX2                !
 ! D46   D(22,18,21,26)          0.0289         estimate D2E/DX2                !
 ! D47   D(17,20,25,21)         -0.1838         estimate D2E/DX2                !
 ! D48   D(17,20,25,27)        179.564          estimate D2E/DX2                !
 ! D49   D(24,20,25,21)       -179.6161         estimate D2E/DX2                !
 ! D50   D(24,20,25,27)          0.1317         estimate D2E/DX2                !
 ! D51   D(18,21,25,20)         -0.6071         estimate D2E/DX2                !
 ! D52   D(18,21,25,27)        179.6366         estimate D2E/DX2                !
 ! D53   D(26,21,25,20)       -179.9846         estimate D2E/DX2                !
 ! D54   D(26,21,25,27)          0.2591         estimate D2E/DX2                !
 --------------------------------------------------------------------------------
 Trust Radius=3.00D-01 FncErr=1.00D-07 GrdErr=1.00D-06
 Number of steps in this run=    134 maximum allowed number of steps=    162.
 GradGradGradGradGradGradGradGradGradGradGradGradGradGradGradGradGradGrad

                          Input orientation:                          
 ---------------------------------------------------------------------
 Center     Atomic      Atomic             Coordinates (Angstroms)
 Number     Number       Type             X           Y           Z
 ---------------------------------------------------------------------
      1          6           0       -3.667593    0.933266   -1.581637
      2          1           0       -4.637943    1.040836   -2.067941
      3          1           0       -3.255318    1.937698   -1.397897
      4          6           0       -5.047530    0.410930    0.377763
      5          1           0       -5.082768    1.419330    0.816064
      6          7           0       -3.826832    0.173570   -0.364777
      7          1           0       -3.001287    0.406833   -2.268585
      8          1           0       -5.129702   -0.317098    1.186476
      9          1           0       -5.910753    0.287259   -0.279965
     10          6           0       -2.708585   -0.179099    0.352119
     11          1           0       -2.907735   -0.676370    1.293124
     12          6           0       -1.402983    0.004924   -0.043676
     13          6           0       -0.304210   -0.439633    0.674086
     14          1           0       -1.184618    0.523810   -0.969303
     15          8           0       -0.484100   -1.012295    1.905856
     16          6           0        1.093971   -0.213793    0.245922
     17          6           0        1.779998   -1.286217   -0.457234
     18          6           0        1.764587    0.958168    0.539492
     19          8           0        1.225386   -2.386117   -0.638919
     20          6           0        3.139040   -1.039358   -0.897881
     21          6           0        3.068329    1.120539    0.102081
     22          1           0        1.279905    1.759220    1.083129
     23          1           0       -0.380007   -1.871514    1.492263
     24          1           0        3.634068   -1.831580   -1.446250
     25          6           0        3.767070    0.138016   -0.621101
     26          9           0        3.698413    2.267938    0.364182
     27          1           0        4.783921    0.339832   -0.934917
 ---------------------------------------------------------------------
                    Distance matrix (angstroms):
                    1          2          3          4          5
     1  C    0.000000
     2  H    1.090707   0.000000
     3  H    1.101188   1.779037   0.000000
     4  C    2.452817   2.558517   2.948900   0.000000
     5  H    2.826296   2.942552   2.917174   1.100100   0.000000
     6  N    1.443344   2.076251   2.122761   1.448382   2.126894
     7  H    1.092242   1.766596   1.779375   3.345188   3.856523
     8  H    3.370997   3.560483   3.908504   1.091235   1.776117
     9  H    2.672722   2.320513   3.320400   1.092270   1.780007
    10  C    2.428264   3.326763   2.800411   2.412355   2.899477
    11  H    3.381207   4.152008   3.767726   2.568819   3.057828
    12  C    2.890606   3.954204   3.000112   3.691229   4.034912
    13  C    4.276153   5.337766   4.319011   4.828079   5.129378
    14  H    2.589937   3.660570   2.543732   4.092605   4.380076
    15  O    5.107097   6.104164   5.224643   5.018519   5.314903
    16  C    5.227639   6.307368   5.123219   6.174601   6.414379
    17  C    5.988876   7.014237   6.052510   7.084678   7.485909
    18  C    5.831671   6.913605   5.469223   6.835976   6.868437
    19  O    5.987342   6.940082   6.272809   6.943097   7.509408
    20  C    7.119622   8.134968   7.071117   8.411334   8.751050
    21  C    6.945691   8.006371   6.550282   8.151485   8.187761
    22  H    5.679869   6.742866   5.172581   6.507831   6.377339
    23  H    5.303195   6.267923   5.579474   5.313890   5.779521
    24  H    7.808774   8.778578   7.853244   9.150192   9.574430
    25  C    7.538519   8.576286   7.290830   8.875212   9.056867
    26  F    7.734701   8.770167   7.181111   8.940927   8.833656
    27  H    8.496970   9.515601   8.209561   9.918952  10.078829
                    6          7          8          9         10
     6  N    0.000000
     7  H    2.088162   0.000000
     8  H    2.084373   4.122096   0.000000
     9  H    2.088742   3.526174   1.767975   0.000000
    10  C    1.374333   2.701311   2.564567   3.297105   0.000000
    11  H    2.077444   3.723956   2.253350   3.524387   1.082788
    12  C    2.450835   2.768813   3.937691   4.522780   1.376632
    13  C    3.723455   4.080446   4.854166   5.733403   2.439787
    14  H    2.733023   2.236538   4.573642   4.781997   2.136051
    15  O    4.211402   5.077018   4.752097   5.992931   2.838423
    16  C    4.973661   4.845520   6.295190   7.042284   3.804197
    17  C    5.794486   5.385917   7.168328   7.852064   4.693415
    18  C    5.718152   5.559031   7.041031   7.748063   4.619281
    19  O    5.670278   5.321762   6.928207   7.628910   4.618356
    20  C    7.090752   6.455534   8.557938   9.167360   6.041297
    21  C    6.975525   6.555126   8.393475   9.025754   5.926577
    22  H    5.539809   5.602816   6.738311   7.465270   4.494386
    23  H    4.417190   5.119175   5.006927   6.195986   3.096203
    24  H    7.800977   7.050863   9.275159   9.846487   6.796622
    25  C    7.598310   6.971164   9.089940   9.684983   6.556053
    26  F    7.845194   7.435130   9.235486   9.832298   6.858408
    27  H    8.631209   7.898900  10.159320  10.714839   7.619934
                   11         12         13         14         15
    11  H    0.000000
    12  C    2.124965   0.000000
    13  C    2.686558   1.385682   0.000000
    14  H    3.086769   1.083380   2.098587   0.000000
    15  O    2.522359   2.383224   1.370241   3.334199   0.000000
    16  C    4.162242   2.523189   1.479607   2.685665   2.425550
    17  C    5.040884   3.459688   2.518037   3.511034   3.284108
    18  C    5.007022   3.358907   2.500377   3.341099   3.287289
    19  O    4.872239   3.602737   2.802222   3.792749   3.359406
    20  C    6.441720   4.738160   3.832326   4.598110   4.581355
    21  C    6.353016   4.610691   3.759700   4.426229   4.519108
    22  H    4.848972   3.397813   2.740746   3.436945   3.386722
    23  H    2.803111   2.631845   1.650891   3.527646   0.959245
    24  H    7.185671   5.541827   4.684376   5.384708   5.372816
    25  C    6.991459   5.203901   4.311207   4.978885   5.077516
    26  F    7.291987   5.595697   4.842311   5.353892   5.534447
    27  H    8.072076   6.259733   5.393101   5.971473   6.135983
                   16         17         18         19         20
    16  C    0.000000
    17  C    1.454357   0.000000
    18  C    1.381811   2.455802   0.000000
    19  O    2.349299   1.245144   3.586591   0.000000
    20  C    2.484381   1.449864   2.818736   2.354335   0.000000
    21  C    2.387304   2.786594   1.384715   4.030156   2.381193
    22  H    2.151341   3.449275   1.082655   4.489125   3.900362
    23  H    2.544409   2.967951   3.676160   2.717359   4.334624
    24  H    3.454385   2.170979   3.901387   2.600201   1.083225
    25  C    2.832129   2.450255   2.455517   3.582139   1.362805
    26  F    3.599457   4.121536   2.342203   5.364914   3.583840
    27  H    3.913644   3.449024   3.416519   4.492392   2.146898
                   21         22         23         24         25
    21  C    0.000000
    22  H    2.137482   0.000000
    23  H    4.772422   4.013094   0.000000
    24  H    3.381183   4.983341   4.974862   0.000000
    25  C    1.405910   3.423258   5.069790   2.139595   0.000000
    26  F    1.335001   2.573880   5.919556   4.481947   2.347779
    27  H    2.151308   4.285475   6.119429   2.509712   1.083142
                   26         27
    26  F    0.000000
    27  H    2.565849   0.000000
 Stoichiometry    C11H12FNO2
 Framework group  C1[X(C11H12FNO2)]
 Deg. of freedom    75
 Full point group                 C1      NOp   1
 Largest Abelian subgroup         C1      NOp   1
 Largest concise Abelian subgroup C1      NOp   1
                         Standard orientation:                         
 ---------------------------------------------------------------------
 Center     Atomic      Atomic             Coordinates (Angstroms)
 Number     Number       Type             X           Y           Z
 ---------------------------------------------------------------------
      1          6           0        3.660909   -0.921229   -1.590249
      2          1           0        4.630718   -1.024655   -2.078527
      3          1           0        3.247692   -1.927117   -1.416882
      4          6           0        5.043119   -0.421349    0.373402
      5          1           0        5.077631   -1.434409    0.800879
      6          7           0        3.822038   -0.174745   -0.365487
      7          1           0        2.994585   -0.386765   -2.270950
      8          1           0        5.126792    0.297912    1.189770
      9          1           0        5.905906   -0.291600   -0.283727
     10          6           0        2.704801    0.171465    0.356118
     11          1           0        2.905313    0.658441    1.302204
     12          6           0        1.398655   -0.006901   -0.040471
     13          6           0        0.300994    0.431161    0.682964
     14          1           0        1.178917   -0.515635   -0.971393
     15          8           0        0.482581    0.990440    1.920620
     16          6           0       -1.097805    0.211427    0.253643
     17          6           0       -1.783265    1.292045   -0.437418
     18          6           0       -1.769451   -0.962872    0.535272
     19          8           0       -1.227605    2.393218   -0.607835
     20          6           0       -3.142959    1.051384   -0.879480
     21          6           0       -3.073750   -1.119144    0.097299
     22          1           0       -1.285177   -1.770211    1.069897
     23          1           0        0.379072    1.854139    1.516317
     24          1           0       -3.637594    1.849955   -1.418922
     25          6           0       -3.772040   -0.128195   -0.614735
     26          9           0       -3.704865   -2.268591    0.347687
     27          1           0       -4.789384   -0.325542   -0.929794
 ---------------------------------------------------------------------
 Rotational constants (GHZ):      1.1244199      0.2673782      0.2480624
 Standard basis: 6-311++G(d,p) (5D, 7F)
 There are   429 symmetry adapted cartesian basis functions of A   symmetry.
 There are   414 symmetry adapted basis functions of A   symmetry.
   414 basis functions,   648 primitive gaussians,   429 cartesian basis functions
    55 alpha electrons       55 beta electrons
       nuclear repulsion energy       939.4587199102 Hartrees.
 NAtoms=   27 NActive=   27 NUniq=   27 SFac= 1.00D+00 NAtFMM=   60 NAOKFM=F Big=F
 Integral buffers will be    131072 words long.
 Raffenetti 1 integral format.
 Two-electron integral symmetry is turned on.
 Nuclear repulsion after empirical dispersion term =      939.4428898375 Hartrees.
 ------------------------------------------------------------------------------
 Polarizable Continuum Model (PCM)
 =================================
 Model                : PCM (using non-symmetric T matrix).
 Atomic radii         : UFF (Universal Force Field).
 Polarization charges : Total charges.
 Charge compensation  : None.
 Solution method      : On-the-fly selection.
 Cavity type          : Scaled VdW (van der Waals Surface) (Alpha=1.100).
 Cavity algorithm     : GePol (No added spheres)
                        Default sphere list used, NSphG=   27.
                        Lebedev-Laikov grids with approx.  5.0 points / Ang**2.
                        Smoothing algorithm: Karplus/York (Gamma=1.0000).
                        Polarization charges: spherical gaussians, with
                                              point-specific exponents (IZeta= 3).
                        Self-potential: point-specific (ISelfS= 7).
                        Self-field    : sphere-specific E.n sum rule (ISelfD= 2).
 1st derivatives      : Analytical E(r).r(x)/FMM algorithm (CHGder, D1EAlg=3).
                        Cavity 1st derivative terms included.
 Solvent              : Dichloromethane, Eps=   8.930000 Eps(inf)=   2.028346
 ------------------------------------------------------------------------------
 One-electron integrals computed using PRISM.
 NBasis=   414 RedAO= T EigKep=  1.64D-06  NBF=   414
 NBsUse=   413 1.00D-06 EigRej=  5.16D-07 NBFU=   413
 ExpMin= 3.60D-02 ExpMax= 1.14D+04 ExpMxC= 1.72D+03 IAcc=3 IRadAn=         5 AccDes= 0.00D+00
 Harris functional with IExCor= 4639 and IRadAn=       5 diagonalized for initial guess.
 HarFok:  IExCor= 4639 AccDes= 0.00D+00 IRadAn=         5 IDoV= 1 UseB2=F ITyADJ=14
 ICtDFT=  3500011 ScaDFX=  1.000000  1.000000  1.000000  1.000000
 FoFCou: FMM=F IPFlag=           0 FMFlag=      100000 FMFlg1=           0
         NFxFlg=           0 DoJE=T BraDBF=F KetDBF=T FulRan=T
         wScrn=  0.000000 ICntrl=     500 IOpCl=  0 I1Cent=   200000004 NGrid=           0
         NMat0=    1 NMatS0=      1 NMatT0=    0 NMatD0=    1 NMtDS0=    0 NMtDT0=    0
 Petite list used in FoFCou.
 Requested convergence on RMS density matrix=1.00D-08 within 128 cycles.
 Requested convergence on MAX density matrix=1.00D-06.
 Requested convergence on             energy=1.00D-06.
 No special actions if energy rises.
 Inv3:  Mode=1 IEnd=    14401443.
 Iteration    1 A*A^-1 deviation from unit magnitude is 4.77D-15 for   2180.
 Iteration    1 A*A^-1 deviation from orthogonality  is 7.83D-15 for   2173    754.
 Iteration    1 A^-1*A deviation from unit magnitude is 5.66D-15 for   2180.
 Iteration    1 A^-1*A deviation from orthogonality  is 4.95D-14 for   1739   1049.
 Error on total polarization charges =  0.01337
 SCF Done:  E(RwB97XD) =  -731.309982933     A.U. after   20 cycles
            NFock= 20  Conv=0.41D-08     -V/T= 2.0037
 DoSCS=F DFT=T ScalE2(SS,OS)=  1.000000  1.000000
 ExpMin= 3.60D-02 ExpMax= 1.14D+04 ExpMxC= 1.72D+03 IAcc=3 IRadAn=         5 AccDes= 0.00D+00
 HarFok:  IExCor=  205 AccDes= 0.00D+00 IRadAn=         5 IDoV=-2 UseB2=F ITyADJ=14
 ICtDFT= 12500011 ScaDFX=  1.000000  1.000000  1.000000  1.000000
 Range of M.O.s used for correlation:    16   413
 NBasis=   414 NAE=    55 NBE=    55 NFC=    15 NFV=     0
 NROrb=    398 NOA=    40 NOB=    40 NVA=   358 NVB=   358

 **** Warning!!: The largest alpha MO coefficient is  0.13920820D+03

 Would need an additional         20568500000 words for in-memory AO integral storage.
 NEqPCM:  Using equilibrium solvation (IEInf=0, Eps=   8.9300, EpsInf=   2.0283)
 Orbital symmetries:
       Occupied  (A) (A) (A) (A) (A) (A) (A) (A) (A) (A) (A) (A)
                 (A) (A) (A) (A) (A) (A) (A) (A) (A) (A) (A) (A)
                 (A) (A) (A) (A) (A) (A) (A) (A) (A) (A) (A) (A)
                 (A) (A) (A) (A) (A) (A) (A) (A) (A) (A) (A) (A)
                 (A) (A) (A) (A) (A) (A) (A)
       Virtual   (A) (A) (A) (A) (A) (A) (A) (A) (A) (A) (A) (A)
                 (A) (A) (A) (A) (A) (A) (A) (A) (A) (A) (A) (A)
                 (A) (A) (A) (A) (A) (A) (A) (A) (A) (A) (A) (A)
                 (A) (A) (A) (A) (A) (A) (A) (A) (A) (A) (A) (A)
                 (A) (A) (A) (A) (A) (A) (A) (A) (A) (A) (A) (A)
                 (A) (A) (A) (A) (A) (A) (A) (A) (A) (A) (A) (A)
                 (A) (A) (A) (A) (A) (A) (A) (A) (A) (A) (A) (A)
                 (A) (A) (A) (A) (A) (A) (A) (A) (A) (A) (A) (A)
                 (A) (A) (A) (A) (A) (A) (A) (A) (A) (A) (A) (A)
                 (A) (A) (A) (A) (A) (A) (A) (A) (A) (A) (A) (A)
                 (A) (A) (A) (A) (A) (A) (A) (A) (A) (A) (A) (A)
                 (A) (A) (A) (A) (A) (A) (A) (A) (A) (A) (A) (A)
                 (A) (A) (A) (A) (A) (A) (A) (A) (A) (A) (A) (A)
                 (A) (A) (A) (A) (A) (A) (A) (A) (A) (A) (A) (A)
                 (A) (A) (A) (A) (A) (A) (A) (A) (A) (A) (A) (A)
                 (A) (A) (A) (A) (A) (A) (A) (A) (A) (A) (A) (A)
                 (A) (A) (A) (A) (A) (A) (A) (A) (A) (A) (A) (A)
                 (A) (A) (A) (A) (A) (A) (A) (A) (A) (A) (A) (A)
                 (A) (A) (A) (A) (A) (A) (A) (A) (A) (A) (A) (A)
                 (A) (A) (A) (A) (A) (A) (A) (A) (A) (A) (A) (A)
                 (A) (A) (A) (A) (A) (A) (A) (A) (A) (A) (A) (A)
                 (A) (A) (A) (A) (A) (A) (A) (A) (A) (A) (A) (A)
                 (A) (A) (A) (A) (A) (A) (A) (A) (A) (A) (A) (A)
                 (A) (A) (A) (A) (A) (A) (A) (A) (A) (A) (A) (A)
                 (A) (A) (A) (A) (A) (A) (A) (A) (A) (A) (A) (A)
                 (A) (A) (A) (A) (A) (A) (A) (A) (A) (A) (A) (A)
                 (A) (A) (A) (A) (A) (A) (A) (A) (A) (A) (A) (A)
                 (A) (A) (A) (A) (A) (A) (A) (A) (A) (A) (A) (A)
                 (A) (A) (A) (A) (A) (A) (A) (A) (A) (A) (A) (A)
                 (A) (A) (A) (A) (A) (A) (A) (A) (A) (A)
     8 initial guesses have been made.
 Convergence on wavefunction:    0.000001000000000
 Iteration     1 Dimension     8 NMult     0 NNew      8
 CISAX will form     8 AO SS matrices at one time.
 Iteration     2 Dimension    12 NMult     8 NNew      4
 Iteration     3 Dimension    16 NMult    12 NNew      4
 Iteration     4 Dimension    20 NMult    16 NNew      4
 Iteration     5 Dimension    24 NMult    20 NNew      4
 Iteration     6 Dimension    28 NMult    24 NNew      4
 Iteration     7 Dimension    32 NMult    28 NNew      4
 Iteration     8 Dimension    36 NMult    32 NNew      4
 Iteration     9 Dimension    40 NMult    36 NNew      4
 Iteration    10 Dimension    44 NMult    40 NNew      4
 ***********************************************************************
 Excited states from <AA,BB:AA,BB> singles matrix:
 ***********************************************************************
 
 Ground to excited state transition densities written to RWF  633
 Ground to excited state transition electric dipole moments (Au):
       state          X           Y           Z        Dip. S.      Osc.
         1        -0.0136      0.0003     -0.0024      0.0002      0.0000
 Ground to excited state transition velocity dipole moments (Au):
       state          X           Y           Z        Dip. S.      Osc.
         1         0.0009      0.0004     -0.0025      0.0000      0.0001
 Ground to excited state transition magnetic dipole moments (Au):
       state          X           Y           Z
         1         0.0969     -0.0058     -0.0234
 Ground to excited state transition velocity quadrupole moments (Au):
       state          XX          YY          ZZ          XY          XZ          YZ
         1         0.0090     -0.0033     -0.0016     -0.0006      0.0053     -0.0014
 <0|del|b> * <b|rxdel|0> + <0|del|b> * <b|delr+rdel|0>
 Rotatory Strengths (R) in cgs (10**-40 erg-esu-cm/Gauss)
       state          XX          YY          ZZ    R(velocity)    E-M Angle
         1         0.3675      0.9543      0.5913      0.6377       57.68
 1/2[<0|r|b>*<b|rxdel|0> + (<0|rxdel|b>*<b|r|0>)*]
 Rotatory Strengths (R) in cgs (10**-40 erg-esu-cm/Gauss)
       state          XX          YY          ZZ     R(length)
         1         0.9352      0.0012     -0.0397      0.2989
  1/2[<0|del|b>*<b|r|0> + (<0|r|b>*<b|del|0>)*] (Au)
       state          X           Y           Z        Dip. S.   Osc.(frdel)
         1         0.0000      0.0000      0.0000      0.0000      0.0000

 Excitation energies and oscillator strengths:
 
 Excited State   1:      Singlet-A      1.4234 eV  871.02 nm  f=0.0000  <S**2>=0.000
      55 -> 56         0.69069
 This state for optimization and/or second-order correction.
 Total Energy, E(TD-HF/TD-KS) =  -731.257672633    
 Copying the excited state density for this state as the 1-particle RhoCI density.
 SavETr:  write IOETrn=   770 NScale= 10 NData=  16 NLR=1 NState=    1 LETran=      28.
          IDoAtm=111111111111111111111111111
 NEqPCM:  Using equilibrium solvation (IEInf=0, Eps=   8.9300, EpsInf=   2.0283)
          Differentiating once with respect to electric field.
                with respect to dipole field.
          Differentiating once with respect to nuclear coordinates.
          There are     1 degrees of freedom in the 1st order CPHF.  IDoFFX=0 NUNeed=     1.
 LinEq1:  Iter=  0 NonCon=     1 RMS=6.50D-03 Max=1.69D-01 NDo=     1
 AX will form     1 AO Fock derivatives at one time.
 LinEq1:  Iter=  1 NonCon=     1 RMS=2.20D-03 Max=6.75D-02 NDo=     1
 LinEq1:  Iter=  2 NonCon=     1 RMS=1.79D-03 Max=1.10D-01 NDo=     1
 LinEq1:  Iter=  3 NonCon=     1 RMS=6.72D-04 Max=3.41D-02 NDo=     1
 LinEq1:  Iter=  4 NonCon=     1 RMS=3.25D-04 Max=9.31D-03 NDo=     1
 LinEq1:  Iter=  5 NonCon=     1 RMS=1.35D-04 Max=5.54D-03 NDo=     1
 LinEq1:  Iter=  6 NonCon=     1 RMS=7.44D-05 Max=3.91D-03 NDo=     1
 LinEq1:  Iter=  7 NonCon=     1 RMS=3.91D-05 Max=2.81D-03 NDo=     1
 LinEq1:  Iter=  8 NonCon=     1 RMS=2.10D-05 Max=1.32D-03 NDo=     1
 LinEq1:  Iter=  9 NonCon=     1 RMS=1.16D-05 Max=5.30D-04 NDo=     1
 LinEq1:  Iter= 10 NonCon=     1 RMS=5.58D-06 Max=2.14D-04 NDo=     1
 LinEq1:  Iter= 11 NonCon=     1 RMS=2.98D-06 Max=6.82D-05 NDo=     1
 LinEq1:  Iter= 12 NonCon=     1 RMS=1.66D-06 Max=1.06D-04 NDo=     1
 LinEq1:  Iter= 13 NonCon=     1 RMS=7.93D-07 Max=1.32D-05 NDo=     1
 LinEq1:  Iter= 14 NonCon=     1 RMS=3.54D-07 Max=1.14D-05 NDo=     1
 LinEq1:  Iter= 15 NonCon=     1 RMS=1.69D-07 Max=3.41D-06 NDo=     1
 LinEq1:  Iter= 16 NonCon=     1 RMS=7.49D-08 Max=2.29D-06 NDo=     1
 LinEq1:  Iter= 17 NonCon=     1 RMS=3.57D-08 Max=5.02D-07 NDo=     1
 LinEq1:  Iter= 18 NonCon=     1 RMS=1.36D-08 Max=4.44D-07 NDo=     1
 LinEq1:  Iter= 19 NonCon=     1 RMS=4.62D-09 Max=1.37D-07 NDo=     1
 LinEq1:  Iter= 20 NonCon=     1 RMS=2.61D-09 Max=1.01D-07 NDo=     1
 LinEq1:  Iter= 21 NonCon=     1 RMS=8.48D-10 Max=3.50D-08 NDo=     1
 LinEq1:  Iter= 22 NonCon=     1 RMS=2.94D-10 Max=8.66D-09 NDo=     1
 LinEq1:  Iter= 23 NonCon=     1 RMS=1.74D-10 Max=4.77D-09 NDo=     1
 LinEq1:  Iter= 24 NonCon=     1 RMS=6.43D-11 Max=1.96D-09 NDo=     1
 LinEq1:  Iter= 25 NonCon=     0 RMS=3.20D-11 Max=9.56D-10 NDo=     1
 Linear equations converged to 1.000D-10 1.000D-09 after    25 iterations.
 End of Minotr F.D. properties file   721 does not exist.
 End of Minotr F.D. properties file   722 does not exist.
 End of Minotr F.D. properties file   788 does not exist.

 **********************************************************************

            Population analysis using the SCF density.

 **********************************************************************

 Orbital symmetries:
       Occupied  (A) (A) (A) (A) (A) (A) (A) (A) (A) (A) (A) (A)
                 (A) (A) (A) (A) (A) (A) (A) (A) (A) (A) (A) (A)
                 (A) (A) (A) (A) (A) (A) (A) (A) (A) (A) (A) (A)
                 (A) (A) (A) (A) (A) (A) (A) (A) (A) (A) (A) (A)
                 (A) (A) (A) (A) (A) (A) (A)
       Virtual   (A) (A) (A) (A) (A) (A) (A) (A) (A) (A) (A) (A)
                 (A) (A) (A) (A) (A) (A) (A) (A) (A) (A) (A) (A)
                 (A) (A) (A) (A) (A) (A) (A) (A) (A) (A) (A) (A)
                 (A) (A) (A) (A) (A) (A) (A) (A) (A) (A) (A) (A)
                 (A) (A) (A) (A) (A) (A) (A) (A) (A) (A) (A) (A)
                 (A) (A) (A) (A) (A) (A) (A) (A) (A) (A) (A) (A)
                 (A) (A) (A) (A) (A) (A) (A) (A) (A) (A) (A) (A)
                 (A) (A) (A) (A) (A) (A) (A) (A) (A) (A) (A) (A)
                 (A) (A) (A) (A) (A) (A) (A) (A) (A) (A) (A) (A)
                 (A) (A) (A) (A) (A) (A) (A) (A) (A) (A) (A) (A)
                 (A) (A) (A) (A) (A) (A) (A) (A) (A) (A) (A) (A)
                 (A) (A) (A) (A) (A) (A) (A) (A) (A) (A) (A) (A)
                 (A) (A) (A) (A) (A) (A) (A) (A) (A) (A) (A) (A)
                 (A) (A) (A) (A) (A) (A) (A) (A) (A) (A) (A) (A)
                 (A) (A) (A) (A) (A) (A) (A) (A) (A) (A) (A) (A)
                 (A) (A) (A) (A) (A) (A) (A) (A) (A) (A) (A) (A)
                 (A) (A) (A) (A) (A) (A) (A) (A) (A) (A) (A) (A)
                 (A) (A) (A) (A) (A) (A) (A) (A) (A) (A) (A) (A)
                 (A) (A) (A) (A) (A) (A) (A) (A) (A) (A) (A) (A)
                 (A) (A) (A) (A) (A) (A) (A) (A) (A) (A) (A) (A)
                 (A) (A) (A) (A) (A) (A) (A) (A) (A) (A) (A) (A)
                 (A) (A) (A) (A) (A) (A) (A) (A) (A) (A) (A) (A)
                 (A) (A) (A) (A) (A) (A) (A) (A) (A) (A) (A) (A)
                 (A) (A) (A) (A) (A) (A) (A) (A) (A) (A) (A) (A)
                 (A) (A) (A) (A) (A) (A) (A) (A) (A) (A) (A) (A)
                 (A) (A) (A) (A) (A) (A) (A) (A) (A) (A) (A) (A)
                 (A) (A) (A) (A) (A) (A) (A) (A) (A) (A) (A) (A)
                 (A) (A) (A) (A) (A) (A) (A) (A) (A) (A) (A) (A)
                 (A) (A) (A) (A) (A) (A) (A) (A) (A) (A) (A) (A)
                 (A) (A) (A) (A) (A) (A) (A) (A) (A) (A)
 The electronic state is 1-A.
 Alpha  occ. eigenvalues --  -24.80603 -19.30831 -19.16843 -14.53839 -10.42624
 Alpha  occ. eigenvalues --  -10.40424 -10.34375 -10.34149 -10.33927 -10.32996
 Alpha  occ. eigenvalues --  -10.32349 -10.29161 -10.28425 -10.28292 -10.26551
 Alpha  occ. eigenvalues --   -1.32674  -1.21495  -1.11665  -1.08630  -0.95146
 Alpha  occ. eigenvalues --   -0.93455  -0.87488  -0.86166  -0.83390  -0.80172
 Alpha  occ. eigenvalues --   -0.75159  -0.70486  -0.69055  -0.67746  -0.65010
 Alpha  occ. eigenvalues --   -0.64325  -0.62168  -0.60901  -0.59706  -0.57820
 Alpha  occ. eigenvalues --   -0.56728  -0.55463  -0.55394  -0.53714  -0.51716
 Alpha  occ. eigenvalues --   -0.51455  -0.51041  -0.50402  -0.49340  -0.49074
 Alpha  occ. eigenvalues --   -0.46929  -0.46050  -0.45209  -0.44102  -0.41502
 Alpha  occ. eigenvalues --   -0.39032  -0.36040  -0.33682  -0.30542  -0.24352
 Alpha virt. eigenvalues --   -0.05945   0.03621   0.04950   0.05108   0.05431
 Alpha virt. eigenvalues --    0.05754   0.06094   0.07013   0.07524   0.07896
 Alpha virt. eigenvalues --    0.08323   0.08617   0.09150   0.09841   0.10072
 Alpha virt. eigenvalues --    0.10579   0.11242   0.11927   0.12748   0.13058
 Alpha virt. eigenvalues --    0.13673   0.14358   0.14403   0.14714   0.15237
 Alpha virt. eigenvalues --    0.15874   0.16320   0.16781   0.17055   0.17476
 Alpha virt. eigenvalues --    0.17718   0.17912   0.18364   0.18473   0.18732
 Alpha virt. eigenvalues --    0.18816   0.19400   0.19965   0.20228   0.20627
 Alpha virt. eigenvalues --    0.20762   0.21243   0.21781   0.22180   0.22361
 Alpha virt. eigenvalues --    0.22960   0.23208   0.23576   0.24396   0.24515
 Alpha virt. eigenvalues --    0.24867   0.25526   0.26178   0.26543   0.27096
 Alpha virt. eigenvalues --    0.27250   0.28438   0.28685   0.28996   0.29361
 Alpha virt. eigenvalues --    0.29645   0.30324   0.30621   0.30924   0.31449
 Alpha virt. eigenvalues --    0.31948   0.32268   0.32767   0.33206   0.34117
 Alpha virt. eigenvalues --    0.34277   0.34535   0.34805   0.35616   0.36296
 Alpha virt. eigenvalues --    0.36477   0.36924   0.37507   0.38069   0.38827
 Alpha virt. eigenvalues --    0.39231   0.39903   0.40371   0.41246   0.41917
 Alpha virt. eigenvalues --    0.42110   0.43343   0.43571   0.44774   0.45883
 Alpha virt. eigenvalues --    0.46123   0.46420   0.47585   0.48331   0.48999
 Alpha virt. eigenvalues --    0.49191   0.50556   0.50751   0.51927   0.52245
 Alpha virt. eigenvalues --    0.53375   0.55148   0.56177   0.58168   0.60645
 Alpha virt. eigenvalues --    0.61085   0.62056   0.63684   0.64026   0.65867
 Alpha virt. eigenvalues --    0.65957   0.66513   0.67117   0.67873   0.68333
 Alpha virt. eigenvalues --    0.69736   0.70016   0.70800   0.71125   0.71336
 Alpha virt. eigenvalues --    0.72074   0.72421   0.73393   0.74108   0.74747
 Alpha virt. eigenvalues --    0.75959   0.76063   0.77305   0.77894   0.78692
 Alpha virt. eigenvalues --    0.79605   0.80133   0.81793   0.82088   0.82792
 Alpha virt. eigenvalues --    0.83598   0.85438   0.85832   0.87170   0.88951
 Alpha virt. eigenvalues --    0.91107   0.91723   0.92757   0.93910   0.94525
 Alpha virt. eigenvalues --    0.95726   0.96101   0.96896   0.99386   0.99456
 Alpha virt. eigenvalues --    1.00145   1.01311   1.02729   1.04658   1.05067
 Alpha virt. eigenvalues --    1.05686   1.06989   1.09749   1.10651   1.11803
 Alpha virt. eigenvalues --    1.12923   1.14125   1.14477   1.15178   1.17893
 Alpha virt. eigenvalues --    1.19355   1.20612   1.24634   1.24975   1.26805
 Alpha virt. eigenvalues --    1.28265   1.30046   1.31377   1.32638   1.35181
 Alpha virt. eigenvalues --    1.36979   1.37352   1.38944   1.40031   1.43841
 Alpha virt. eigenvalues --    1.48116   1.49010   1.51612   1.51662   1.53041
 Alpha virt. eigenvalues --    1.53280   1.54100   1.55256   1.56786   1.58513
 Alpha virt. eigenvalues --    1.59272   1.60000   1.60756   1.60915   1.63351
 Alpha virt. eigenvalues --    1.63619   1.65191   1.65622   1.67119   1.68273
 Alpha virt. eigenvalues --    1.69350   1.70279   1.71411   1.72574   1.73691
 Alpha virt. eigenvalues --    1.74710   1.75515   1.76336   1.78142   1.78346
 Alpha virt. eigenvalues --    1.79138   1.80185   1.83213   1.84309   1.85364
 Alpha virt. eigenvalues --    1.87217   1.88460   1.89764   1.90361   1.93805
 Alpha virt. eigenvalues --    1.94164   1.96713   1.99190   2.01827   2.02277
 Alpha virt. eigenvalues --    2.03603   2.04576   2.05870   2.07718   2.08844
 Alpha virt. eigenvalues --    2.09870   2.10796   2.12646   2.14924   2.16574
 Alpha virt. eigenvalues --    2.17335   2.19018   2.19655   2.19755   2.20070
 Alpha virt. eigenvalues --    2.22501   2.23489   2.26514   2.28643   2.30165
 Alpha virt. eigenvalues --    2.33556   2.35933   2.39720   2.40091   2.42223
 Alpha virt. eigenvalues --    2.44611   2.48981   2.51079   2.53418   2.54569
 Alpha virt. eigenvalues --    2.56564   2.58788   2.59940   2.62287   2.64977
 Alpha virt. eigenvalues --    2.66298   2.68112   2.70259   2.70561   2.72138
 Alpha virt. eigenvalues --    2.72258   2.76037   2.77413   2.79124   2.79643
 Alpha virt. eigenvalues --    2.81320   2.82637   2.83553   2.84185   2.85909
 Alpha virt. eigenvalues --    2.86898   2.89045   2.89768   2.92352   2.94716
 Alpha virt. eigenvalues --    2.95095   2.96107   2.98159   3.01304   3.02652
 Alpha virt. eigenvalues --    3.03644   3.05221   3.07825   3.08871   3.10168
 Alpha virt. eigenvalues --    3.12116   3.19414   3.21196   3.22638   3.25060
 Alpha virt. eigenvalues --    3.26523   3.27449   3.34613   3.36768   3.38653
 Alpha virt. eigenvalues --    3.42997   3.47638   3.48504   3.48809   3.58442
 Alpha virt. eigenvalues --    3.60919   3.61916   3.63941   3.65800   3.73596
 Alpha virt. eigenvalues --    3.76483   3.77350   3.82636   3.83544   3.85979
 Alpha virt. eigenvalues --    3.87869   3.89025   3.90208   3.90981   3.95868
 Alpha virt. eigenvalues --    3.98425   4.07841   4.10472   4.13119   4.17901
 Alpha virt. eigenvalues --    4.24930   4.28648   4.31589   4.33034   4.48327
 Alpha virt. eigenvalues --    4.92716   4.95443   4.99310   5.09215   5.23453
 Alpha virt. eigenvalues --    5.26313   5.41600   5.59159   5.72445   5.92587
 Alpha virt. eigenvalues --    6.45953   6.57654   6.90243  23.72493  23.85555
 Alpha virt. eigenvalues --   24.02698  24.03809  24.06014  24.06160  24.08949
 Alpha virt. eigenvalues --   24.12918  24.24084  24.29065  24.35041  35.62561
 Alpha virt. eigenvalues --   50.04834  50.23962  66.96695
          Condensed to atoms (all electrons):
               1          2          3          4          5          6
     1  C    5.429094   0.375034   0.419124  -0.136931   0.015181   0.273594
     2  H    0.375034   0.459731  -0.018660  -0.000558  -0.003169  -0.038392
     3  H    0.419124  -0.018660   0.468868  -0.018322   0.004607  -0.041114
     4  C   -0.136931  -0.000558  -0.018322   5.341558   0.417884   0.253213
     5  H    0.015181  -0.003169   0.004607   0.417884   0.499684  -0.017794
     6  N    0.273594  -0.038392  -0.041114   0.253213  -0.017794   6.584210
     7  H    0.390545  -0.017987  -0.041428   0.015740  -0.000488  -0.026336
     8  H    0.003054   0.002756  -0.001485   0.386951  -0.037713  -0.068405
     9  H   -0.027692   0.002185   0.002260   0.395921  -0.050844  -0.042031
    10  C   -0.161889   0.030816   0.013116  -0.227447  -0.069355   0.121062
    11  H    0.013505   0.000115  -0.001379  -0.015772   0.006620  -0.042772
    12  C    0.137221  -0.003924  -0.006412   0.025888   0.015334  -0.067358
    13  C   -0.154626  -0.003060  -0.000860  -0.049423  -0.005939  -0.029874
    14  H    0.017040  -0.000239  -0.003911   0.008600   0.002057  -0.020417
    15  O   -0.003192   0.000093   0.000389  -0.007638   0.000038  -0.002264
    16  C   -0.103343  -0.001343  -0.005876  -0.007466  -0.001159  -0.025917
    17  C   -0.011044   0.000924  -0.002084  -0.019201   0.001045  -0.011511
    18  C    0.016710   0.000094  -0.001740   0.022533  -0.001760   0.017742
    19  O    0.001636   0.000214  -0.000196   0.000018  -0.000007   0.000803
    20  C    0.000228  -0.000266  -0.000690   0.000668   0.000021   0.000176
    21  C    0.005034   0.000328   0.001626   0.002011  -0.000510   0.001474
    22  H    0.000138   0.000199  -0.001205  -0.000526  -0.000094   0.000324
    23  H    0.001237   0.000009  -0.000092   0.002176   0.000119   0.000620
    24  H    0.000042   0.000011  -0.000024  -0.000004  -0.000001   0.000044
    25  C   -0.001208  -0.000095   0.000674  -0.000172   0.000005  -0.000434
    26  F    0.000028   0.000001   0.000018   0.000000  -0.000001   0.000003
    27  H   -0.000045  -0.000001   0.000011  -0.000002   0.000000  -0.000011
               7          8          9         10         11         12
     1  C    0.390545   0.003054  -0.027692  -0.161889   0.013505   0.137221
     2  H   -0.017987   0.002756   0.002185   0.030816   0.000115  -0.003924
     3  H   -0.041428  -0.001485   0.002260   0.013116  -0.001379  -0.006412
     4  C    0.015740   0.386951   0.395921  -0.227447  -0.015772   0.025888
     5  H   -0.000488  -0.037713  -0.050844  -0.069355   0.006620   0.015334
     6  N   -0.026336  -0.068405  -0.042031   0.121062  -0.042772  -0.067358
     7  H    0.497522  -0.002327   0.000422   0.009161   0.000269  -0.025368
     8  H   -0.002327   0.506032  -0.013280   0.040756  -0.007453  -0.007459
     9  H    0.000422  -0.013280   0.512946   0.020749  -0.002139   0.010704
    10  C    0.009161   0.040756   0.020749   8.160222   0.408825  -1.185813
    11  H    0.000269  -0.007453  -0.002139   0.408825   0.418505   0.062481
    12  C   -0.025368  -0.007459   0.010704  -1.185813   0.062481  10.359291
    13  C   -0.011598   0.010217  -0.000104  -1.027070  -0.069789  -0.542654
    14  H   -0.005399  -0.001587  -0.001337  -0.077652   0.003355   0.498836
    15  O    0.000255   0.000999  -0.000163   0.024308   0.013169  -0.551277
    16  C    0.002546   0.005126  -0.001192   0.245920  -0.039476  -3.363581
    17  C   -0.001548  -0.001637  -0.001325  -0.297240   0.001919  -0.401344
    18  C    0.003723   0.003511   0.001355   0.069527  -0.017275   0.877620
    19  O   -0.000180  -0.000118  -0.000009  -0.003676   0.003201  -0.009483
    20  C   -0.000534  -0.000611   0.000077   0.026460   0.007410  -0.001372
    21  C    0.002490   0.000447   0.000200   0.191515  -0.000893   0.227188
    22  H    0.000313   0.000207  -0.000034  -0.020433  -0.000674  -0.043428
    23  H    0.000239   0.000200  -0.000210  -0.005129  -0.006711   0.017588
    24  H    0.000020  -0.000001   0.000000   0.000025   0.000091  -0.005077
    25  C   -0.000029   0.000146  -0.000032  -0.012700  -0.002841   0.121158
    26  F    0.000012   0.000000   0.000000  -0.000001  -0.000029   0.001236
    27  H    0.000002   0.000001   0.000000   0.000668   0.000000  -0.000719
              13         14         15         16         17         18
     1  C   -0.154626   0.017040  -0.003192  -0.103343  -0.011044   0.016710
     2  H   -0.003060  -0.000239   0.000093  -0.001343   0.000924   0.000094
     3  H   -0.000860  -0.003911   0.000389  -0.005876  -0.002084  -0.001740
     4  C   -0.049423   0.008600  -0.007638  -0.007466  -0.019201   0.022533
     5  H   -0.005939   0.002057   0.000038  -0.001159   0.001045  -0.001760
     6  N   -0.029874  -0.020417  -0.002264  -0.025917  -0.011511   0.017742
     7  H   -0.011598  -0.005399   0.000255   0.002546  -0.001548   0.003723
     8  H    0.010217  -0.001587   0.000999   0.005126  -0.001637   0.003511
     9  H   -0.000104  -0.001337  -0.000163  -0.001192  -0.001325   0.001355
    10  C   -1.027070  -0.077652   0.024308   0.245920  -0.297240   0.069527
    11  H   -0.069789   0.003355   0.013169  -0.039476   0.001919  -0.017275
    12  C   -0.542654   0.498836  -0.551277  -3.363581  -0.401344   0.877620
    13  C   10.646855  -0.001554   0.534086  -0.114431  -2.133844  -1.788177
    14  H   -0.001554   0.462658  -0.011110  -0.074658  -0.068312   0.006384
    15  O    0.534086  -0.011110   7.827881   0.300573  -0.037910  -0.102506
    16  C   -0.114431  -0.074658   0.300573  14.687069  -1.319079  -3.315369
    17  C   -2.133844  -0.068312  -0.037910  -1.319079  17.360741  -2.494500
    18  C   -1.788177   0.006384  -0.102506  -3.315369  -2.494500  15.827562
    19  O    0.151371   0.004088  -0.017067  -0.034226   0.085159  -0.012708
    20  C    0.967066   0.047193  -0.021253  -0.616456  -4.347667   0.134885
    21  C    0.702476  -0.028467  -0.033038  -0.392670  -2.452938  -1.537842
    22  H   -0.072858  -0.001942  -0.000214   0.093971   0.128222   0.542451
    23  H    0.024926   0.000109   0.240067  -0.001939  -0.088692   0.084941
    24  H   -0.006164  -0.000057  -0.000278  -0.012516  -0.150453   0.061923
    25  C   -0.577627  -0.017135   0.009732  -0.803177   2.701900  -2.070437
    26  F    0.009688  -0.001464   0.000145   0.051078  -0.038105  -0.405691
    27  H   -0.003616  -0.000181   0.000131   0.044184   0.054488  -0.108526
              19         20         21         22         23         24
     1  C    0.001636   0.000228   0.005034   0.000138   0.001237   0.000042
     2  H    0.000214  -0.000266   0.000328   0.000199   0.000009   0.000011
     3  H   -0.000196  -0.000690   0.001626  -0.001205  -0.000092  -0.000024
     4  C    0.000018   0.000668   0.002011  -0.000526   0.002176  -0.000004
     5  H   -0.000007   0.000021  -0.000510  -0.000094   0.000119  -0.000001
     6  N    0.000803   0.000176   0.001474   0.000324   0.000620   0.000044
     7  H   -0.000180  -0.000534   0.002490   0.000313   0.000239   0.000020
     8  H   -0.000118  -0.000611   0.000447   0.000207   0.000200  -0.000001
     9  H   -0.000009   0.000077   0.000200  -0.000034  -0.000210   0.000000
    10  C   -0.003676   0.026460   0.191515  -0.020433  -0.005129   0.000025
    11  H    0.003201   0.007410  -0.000893  -0.000674  -0.006711   0.000091
    12  C   -0.009483  -0.001372   0.227188  -0.043428   0.017588  -0.005077
    13  C    0.151371   0.967066   0.702476  -0.072858   0.024926  -0.006164
    14  H    0.004088   0.047193  -0.028467  -0.001942   0.000109  -0.000057
    15  O   -0.017067  -0.021253  -0.033038  -0.000214   0.240067  -0.000278
    16  C   -0.034226  -0.616456  -0.392670   0.093971  -0.001939  -0.012516
    17  C    0.085159  -4.347667  -2.452938   0.128222  -0.088692  -0.150453
    18  C   -0.012708   0.134885  -1.537842   0.542451   0.084941   0.061923
    19  O    8.544440  -0.123741   0.015184  -0.001709   0.002067  -0.008581
    20  C   -0.123741  11.330760   1.393494  -0.013010  -0.006713   0.522062
    21  C    0.015184   1.393494   9.758971  -0.258522   0.007533   0.045408
    22  H   -0.001709  -0.013010  -0.258522   0.474060   0.000396   0.002075
    23  H    0.002067  -0.006713   0.007533   0.000396   0.387797  -0.000247
    24  H   -0.008581   0.522062   0.045408   0.002075  -0.000247   0.475430
    25  C   -0.026863  -3.021097  -1.292220  -0.073532   0.001970  -0.134574
    26  F    0.000126   0.040530   0.661259  -0.023867  -0.000050   0.000925
    27  H    0.000794  -0.040731  -0.140095  -0.002218   0.000016  -0.012764
              25         26         27
     1  C   -0.001208   0.000028  -0.000045
     2  H   -0.000095   0.000001  -0.000001
     3  H    0.000674   0.000018   0.000011
     4  C   -0.000172   0.000000  -0.000002
     5  H    0.000005  -0.000001   0.000000
     6  N   -0.000434   0.000003  -0.000011
     7  H   -0.000029   0.000012   0.000002
     8  H    0.000146   0.000000   0.000001
     9  H   -0.000032   0.000000   0.000000
    10  C   -0.012700  -0.000001   0.000668
    11  H   -0.002841  -0.000029   0.000000
    12  C    0.121158   0.001236  -0.000719
    13  C   -0.577627   0.009688  -0.003616
    14  H   -0.017135  -0.001464  -0.000181
    15  O    0.009732   0.000145   0.000131
    16  C   -0.803177   0.051078   0.044184
    17  C    2.701900  -0.038105   0.054488
    18  C   -2.070437  -0.405691  -0.108526
    19  O   -0.026863   0.000126   0.000794
    20  C   -3.021097   0.040530  -0.040731
    21  C   -1.292220   0.661259  -0.140095
    22  H   -0.073532  -0.023867  -0.002218
    23  H    0.001970  -0.000050   0.000016
    24  H   -0.134574   0.000925  -0.012764
    25  C   10.754169  -0.308164   0.518022
    26  F   -0.308164   9.214024  -0.023121
    27  H    0.518022  -0.023121   0.464294
 Mulliken charges:
               1
     1  C   -0.498476
     2  H    0.215186
     3  H    0.234785
     4  C   -0.389698
     5  H    0.226240
     6  N    0.181365
     7  H    0.209962
     8  H    0.181675
     9  H    0.193572
    10  C   -0.274724
    11  H    0.267736
    12  C   -0.139272
    13  C   -0.453415
    14  H    0.265105
    15  O   -0.163955
    16  C    0.803404
    17  C   -0.455963
    18  C    0.185569
    19  O   -0.570537
    20  C   -0.276890
    21  C   -0.879441
    22  H    0.271912
    23  H    0.337773
    24  H    0.222684
    25  C    0.234560
    26  F   -0.178580
    27  H    0.249422
 Sum of Mulliken charges =   0.00000
 Mulliken charges with hydrogens summed into heavy atoms:
               1
     1  C    0.161458
     4  C    0.211788
     6  N    0.181365
    10  C   -0.006988
    12  C    0.125832
    13  C   -0.453415
    15  O    0.173818
    16  C    0.803404
    17  C   -0.455963
    18  C    0.457481
    19  O   -0.570537
    20  C   -0.054206
    21  C   -0.879441
    25  C    0.483982
    26  F   -0.178580
 Electronic spatial extent (au):  <R**2>=           4443.4843
 Charge=              0.0000 electrons
 Dipole moment (field-independent basis, Debye):
    X=             17.5776    Y=             -5.0910    Z=              0.3956  Tot=             18.3043
 Quadrupole moment (field-independent basis, Debye-Ang):
   XX=            -51.9910   YY=           -104.1293   ZZ=            -87.5161
   XY=             -5.1828   XZ=             -0.5914   YZ=              8.0048
 Traceless Quadrupole moment (field-independent basis, Debye-Ang):
   XX=             29.2211   YY=            -22.9172   ZZ=             -6.3040
   XY=             -5.1828   XZ=             -0.5914   YZ=              8.0048
 Octapole moment (field-independent basis, Debye-Ang**2):
  XXX=            255.4245  YYY=            -42.9487  ZZZ=             -4.2733  XYY=             51.8086
  XXY=             -9.5886  XXZ=            -18.0074  XZZ=             26.4978  YZZ=            -10.2237
  YYZ=             19.4341  XYZ=              5.0988
 Hexadecapole moment (field-independent basis, Debye-Ang**3):
 XXXX=          -3447.9692 YYYY=           -900.3390 ZZZZ=           -493.6963 XXXY=           -168.0196
 XXXZ=             49.7392 YYYX=             48.7958 YYYZ=             55.4383 ZZZX=            -42.4413
 ZZZY=             10.2349 XXYY=           -947.2538 XXZZ=           -755.9274 YYZZ=           -202.3589
 XXYZ=             39.6731 YYXZ=             -5.5442 ZZXY=              5.3409
 N-N= 9.394428898375D+02 E-N=-3.590051987232D+03  KE= 7.286070421436D+02
 D1PCM: PCM CHGder 1st derivatives, ID1Alg=3 FixD1E=F DoIter=F DoCFld=F I1PDM=6.
 Calling FoFJK, ICntrl=  10005127 FMM=F ISym2X=0 I1Cent= 0 IOpClX= 0 NMat=1 NMatS=1 NMatT=0.
 ***** Axes restored to original set *****
 -------------------------------------------------------------------
 Center     Atomic                   Forces (Hartrees/Bohr)
 Number     Number              X              Y              Z
 -------------------------------------------------------------------
      1        6           0.000688330    0.001717650   -0.002026172
      2        1           0.000268150   -0.000072256    0.000306001
      3        1          -0.000288657   -0.000906972   -0.000051977
      4        6          -0.002543398    0.000435675    0.002081339
      5        1           0.000135606   -0.000851736   -0.000835475
      6        7           0.004003342   -0.001603795    0.002856545
      7        1           0.000065810    0.000148291   -0.000122069
      8        1          -0.000082634    0.000079711    0.000045880
      9        1           0.000405473    0.000098596    0.000155738
     10        6           0.004030977    0.001698841   -0.004906858
     11        1          -0.000663086    0.000559142    0.000516979
     12        6          -0.012914673    0.006525798   -0.007188133
     13        6           0.015620855    0.037095212   -0.013192734
     14        1          -0.000852388   -0.000610314   -0.001597090
     15        8           0.004512019   -0.016378277   -0.008745920
     16        6          -0.012482341   -0.003367704    0.004163234
     17        6           0.002793069   -0.000116558    0.002181579
     18        6           0.006867496    0.007977358   -0.002297593
     19        8          -0.002703580   -0.002271112   -0.001129650
     20        6           0.001953577    0.002378602   -0.000415038
     21        6          -0.008341508    0.001580383    0.003230571
     22        1          -0.000032485    0.000199956    0.000042486
     23        1          -0.002149112   -0.028032869    0.029435143
     24        1           0.000668946    0.000343996    0.000317368
     25        6           0.000774801   -0.005343934   -0.002838146
     26        9           0.000436643   -0.000694281    0.000125471
     27        1          -0.000171231   -0.000589401   -0.000111479
 -------------------------------------------------------------------
 Cartesian Forces:  Max     0.037095212 RMS     0.007561372

 GradGradGradGradGradGradGradGradGradGradGradGradGradGradGradGradGradGrad
 Berny optimization.
 FormGI is forming the generalized inverse of G from B-inverse, IUseBI=4.
 Internal  Forces:  Max     0.070332864 RMS     0.007586945
 Search for a local minimum.
 Step number   1 out of a maximum of  134
 All quantities printed in internal units (Hartrees-Bohrs-Radians)
 Mixed Optimization -- RFO/linear search
 Second derivative matrix not updated -- first step.
 ITU=  0
     Eigenvalues ---    0.01036   0.01052   0.01118   0.01401   0.01567
     Eigenvalues ---    0.01666   0.01776   0.01822   0.01987   0.02031
     Eigenvalues ---    0.02085   0.02128   0.02163   0.02224   0.02238
     Eigenvalues ---    0.02278   0.02311   0.02340   0.02365   0.02398
     Eigenvalues ---    0.07304   0.07339   0.07649   0.07690   0.15994
     Eigenvalues ---    0.15994   0.15999   0.16000   0.16000   0.16000
     Eigenvalues ---    0.16000   0.16000   0.16000   0.16000   0.16000
     Eigenvalues ---    0.16000   0.21819   0.22000   0.22002   0.22348
     Eigenvalues ---    0.22789   0.23489   0.24583   0.24921   0.24945
     Eigenvalues ---    0.24975   0.24988   0.24999   0.33551   0.33671
     Eigenvalues ---    0.34552   0.34555   0.34615   0.34670   0.34731
     Eigenvalues ---    0.35589   0.35607   0.35617   0.35660   0.35675
     Eigenvalues ---    0.36401   0.37365   0.38458   0.39130   0.43406
     Eigenvalues ---    0.45988   0.47944   0.48078   0.49723   0.50153
     Eigenvalues ---    0.50930   0.51409   0.55636   0.58340   0.85057
 RFO step:  Lambda=-3.10014077D-02 EMin= 1.03570170D-02
 Linear search not attempted -- first point.
 Maximum step size (   0.300) exceeded in Quadratic search.
    -- Step size scaled by   0.787
 Iteration  1 RMS(Cart)=  0.04281562 RMS(Int)=  0.00866441
 Iteration  2 RMS(Cart)=  0.01471701 RMS(Int)=  0.00069621
 Iteration  3 RMS(Cart)=  0.00067545 RMS(Int)=  0.00004287
 Iteration  4 RMS(Cart)=  0.00000065 RMS(Int)=  0.00004287
 Variable       Old X    -DE/DX   Delta X   Delta X   Delta X     New X
                                 (Linear)    (Quad)   (Total)
    R1        2.06114  -0.00038   0.00000  -0.00080  -0.00080   2.06034
    R2        2.08094  -0.00094   0.00000  -0.00201  -0.00201   2.07893
    R3        2.72753   0.00215   0.00000   0.00400   0.00400   2.73153
    R4        2.06404   0.00004   0.00000   0.00008   0.00008   2.06412
    R5        2.07889  -0.00113   0.00000  -0.00242  -0.00242   2.07647
    R6        2.73704   0.00245   0.00000   0.00464   0.00464   2.74169
    R7        2.06214  -0.00001   0.00000  -0.00002  -0.00002   2.06212
    R8        2.06409  -0.00042   0.00000  -0.00088  -0.00088   2.06321
    R9        2.59711  -0.00366   0.00000  -0.00542  -0.00542   2.59170
   R10        2.04617   0.00031   0.00000   0.00064   0.00064   2.04681
   R11        2.60146  -0.00645   0.00000  -0.00961  -0.00961   2.59185
   R12        2.61856   0.01403   0.00000   0.02158   0.02158   2.64014
   R13        2.04729   0.00090   0.00000   0.00183   0.00183   2.04912
   R14        2.58938   0.03684   0.00000   0.05368   0.05368   2.64305
   R15        2.79605  -0.01060   0.00000  -0.02213  -0.02213   2.77393
   R16        1.81271   0.01220   0.00000   0.01636   0.01636   1.82907
   R17        2.74834   0.00171   0.00000   0.00356   0.00356   2.75190
   R18        2.61124   0.00572   0.00000   0.00897   0.00897   2.62021
   R19        2.35298   0.00337   0.00000   0.00301   0.00301   2.35599
   R20        2.73985   0.00036   0.00000   0.00056   0.00056   2.74041
   R21        2.61673  -0.00515   0.00000  -0.00781  -0.00780   2.60893
   R22        2.04592   0.00019   0.00000   0.00038   0.00038   2.04630
   R23        2.04700  -0.00011   0.00000  -0.00023  -0.00023   2.04677
   R24        2.57533  -0.00363   0.00000  -0.00542  -0.00542   2.56990
   R25        2.65678   0.00495   0.00000   0.00795   0.00795   2.66473
   R26        2.52279  -0.00036   0.00000  -0.00046  -0.00046   2.52232
   R27        2.04684  -0.00024   0.00000  -0.00048  -0.00048   2.04636
    A1        1.89390   0.00013   0.00000   0.00030   0.00030   1.89420
    A2        1.90674  -0.00021   0.00000  -0.00087  -0.00087   1.90586
    A3        1.88582   0.00003   0.00000   0.00041   0.00041   1.88623
    A4        1.96138  -0.00023   0.00000  -0.00110  -0.00110   1.96028
    A5        1.89249  -0.00008   0.00000  -0.00035  -0.00035   1.89215
    A6        1.92182   0.00037   0.00000   0.00166   0.00166   1.92348
    A7        1.96219  -0.00043   0.00000  -0.00194  -0.00194   1.96024
    A8        1.89006   0.00019   0.00000   0.00118   0.00118   1.89124
    A9        1.89482   0.00006   0.00000  -0.00047  -0.00047   1.89435
   A10        1.91141   0.00035   0.00000   0.00181   0.00181   1.91322
   A11        1.91644  -0.00018   0.00000  -0.00097  -0.00097   1.91546
   A12        1.88727   0.00004   0.00000   0.00049   0.00049   1.88776
   A13        2.02522   0.00044   0.00000   0.00157   0.00157   2.02680
   A14        2.07725  -0.00050   0.00000  -0.00131  -0.00131   2.07594
   A15        2.04923   0.00011   0.00000   0.00061   0.00061   2.04984
   A16        2.00592  -0.00078   0.00000  -0.00304  -0.00304   2.00288
   A17        2.19865   0.00030   0.00000   0.00097   0.00097   2.19962
   A18        2.07795   0.00049   0.00000   0.00218   0.00218   2.08013
   A19        2.16545   0.00000   0.00000   0.00000  -0.00001   2.16544
   A20        2.09535  -0.00104   0.00000  -0.00429  -0.00430   2.09105
   A21        2.02238   0.00104   0.00000   0.00428   0.00427   2.02666
   A22        2.08934   0.00840   0.00000   0.02435   0.02425   2.11359
   A23        2.15370  -0.00517   0.00000  -0.01381  -0.01393   2.13977
   A24        2.03530  -0.00307   0.00000  -0.00795  -0.00808   2.02723
   A25        1.54330   0.07033   0.00000   0.28988   0.28988   1.83318
   A26        2.06361  -0.00426   0.00000  -0.01242  -0.01242   2.05118
   A27        2.12537   0.00397   0.00000   0.01065   0.01065   2.13602
   A28        2.09346   0.00031   0.00000   0.00195   0.00195   2.09541
   A29        2.10809  -0.00114   0.00000  -0.00328  -0.00330   2.10479
   A30        2.05279   0.00014   0.00000   0.00079   0.00078   2.05357
   A31        2.12184   0.00102   0.00000   0.00279   0.00277   2.12461
   A32        2.08206  -0.00218   0.00000  -0.00590  -0.00590   2.07616
   A33        2.11407   0.00117   0.00000   0.00331   0.00330   2.11738
   A34        2.08674   0.00102   0.00000   0.00268   0.00268   2.08942
   A35        2.04620   0.00104   0.00000   0.00435   0.00435   2.05056
   A36        2.11454  -0.00059   0.00000  -0.00256  -0.00256   2.11198
   A37        2.12240  -0.00045   0.00000  -0.00182  -0.00182   2.12059
   A38        2.15134   0.00135   0.00000   0.00372   0.00372   2.15506
   A39        2.07503  -0.00002   0.00000  -0.00001  -0.00002   2.07501
   A40        2.05676  -0.00133   0.00000  -0.00367  -0.00367   2.05309
   A41        2.07053   0.00099   0.00000   0.00220   0.00220   2.07274
   A42        2.13502  -0.00106   0.00000  -0.00344  -0.00344   2.13158
   A43        2.07762   0.00007   0.00000   0.00124   0.00124   2.07886
    D1       -0.63668   0.00018   0.00000   0.00180   0.00180  -0.63487
    D2        3.04643   0.00002   0.00000  -0.00006  -0.00006   3.04637
    D3        1.46637   0.00005   0.00000   0.00087   0.00087   1.46724
    D4       -1.13371  -0.00011   0.00000  -0.00099  -0.00099  -1.13470
    D5       -2.70512   0.00004   0.00000   0.00084   0.00084  -2.70428
    D6        0.97798  -0.00011   0.00000  -0.00102  -0.00102   0.97696
    D7       -1.18767   0.00029   0.00000   0.00245   0.00244  -1.18523
    D8        1.42136   0.00025   0.00000   0.00366   0.00366   1.42502
    D9        2.99359   0.00010   0.00000   0.00099   0.00099   2.99457
   D10       -0.68056   0.00006   0.00000   0.00220   0.00220  -0.67837
   D11        0.92377  -0.00005   0.00000  -0.00012  -0.00012   0.92365
   D12       -2.75039  -0.00010   0.00000   0.00109   0.00109  -2.74930
   D13        3.05823  -0.00015   0.00000  -0.00307  -0.00307   3.05516
   D14       -0.12337   0.00010   0.00000   0.00051   0.00051  -0.12286
   D15        0.46548  -0.00041   0.00000  -0.00524  -0.00523   0.46024
   D16       -2.71612  -0.00016   0.00000  -0.00166  -0.00166  -2.71778
   D17       -3.06970   0.00042   0.00000   0.00590   0.00589  -3.06381
   D18        0.06993  -0.00014   0.00000  -0.00212  -0.00211   0.06781
   D19        0.03039   0.00065   0.00000   0.00950   0.00950   0.03989
   D20       -3.11317   0.00010   0.00000   0.00148   0.00150  -3.11167
   D21       -0.09075   0.00147   0.00000   0.02433   0.02440  -0.06634
   D22       -3.12310  -0.00011   0.00000  -0.00442  -0.00452  -3.12761
   D23        3.05274   0.00200   0.00000   0.03205   0.03215   3.08489
   D24        0.02039   0.00042   0.00000   0.00330   0.00323   0.02362
   D25        1.76048   0.00075   0.00000   0.00789   0.00773   1.76822
   D26       -1.48310   0.00203   0.00000   0.03419   0.03434  -1.44875
   D27       -1.70684  -0.00061   0.00000  -0.01810  -0.01827  -1.72510
   D28        1.47614  -0.00092   0.00000  -0.02319  -0.02335   1.45280
   D29        1.54087  -0.00282   0.00000  -0.04793  -0.04777   1.49310
   D30       -1.55933  -0.00313   0.00000  -0.05302  -0.05285  -1.61218
   D31       -0.05672   0.00043   0.00000   0.00849   0.00850  -0.04822
   D32        3.11723  -0.00020   0.00000  -0.00183  -0.00179   3.11544
   D33        3.04427   0.00083   0.00000   0.01371   0.01368   3.05795
   D34       -0.06497   0.00020   0.00000   0.00339   0.00339  -0.06157
   D35       -3.13057  -0.00013   0.00000  -0.00044  -0.00041  -3.13098
   D36       -0.01594   0.00014   0.00000   0.00333   0.00335  -0.01259
   D37        0.05310  -0.00035   0.00000  -0.00528  -0.00529   0.04781
   D38       -3.11546  -0.00008   0.00000  -0.00152  -0.00153  -3.11698
   D39       -3.11121  -0.00009   0.00000  -0.00148  -0.00149  -3.11270
   D40        0.03987   0.00004   0.00000   0.00071   0.00072   0.04059
   D41        0.06301  -0.00068   0.00000  -0.01177  -0.01178   0.05123
   D42       -3.06909  -0.00055   0.00000  -0.00957  -0.00958  -3.07866
   D43       -0.01505   0.00018   0.00000   0.00296   0.00297  -0.01208
   D44        3.11557   0.00050   0.00000   0.00752   0.00753   3.12309
   D45       -3.13012  -0.00009   0.00000  -0.00075  -0.00074  -3.13086
   D46        0.00051   0.00024   0.00000   0.00381   0.00382   0.00432
   D47       -0.00321  -0.00019   0.00000  -0.00305  -0.00305  -0.00626
   D48        3.13398  -0.00019   0.00000  -0.00293  -0.00294   3.13105
   D49       -3.13489  -0.00006   0.00000  -0.00079  -0.00079  -3.13569
   D50        0.00230  -0.00006   0.00000  -0.00067  -0.00068   0.00162
   D51       -0.01060   0.00009   0.00000   0.00131   0.00131  -0.00929
   D52        3.13525   0.00010   0.00000   0.00122   0.00121   3.13646
   D53       -3.14132  -0.00023   0.00000  -0.00323  -0.00322   3.13864
   D54        0.00452  -0.00023   0.00000  -0.00332  -0.00332   0.00120
         Item               Value     Threshold  Converged?
 Maximum Force            0.070333     0.000450     NO 
 RMS     Force            0.007587     0.000300     NO 
 Maximum Displacement     0.439014     0.001800     NO 
 RMS     Displacement     0.053891     0.001200     NO 
 Predicted change in Energy=-1.634312D-02
 GradGradGradGradGradGradGradGradGradGradGradGradGradGradGradGradGradGrad

                          Input orientation:                          
 ---------------------------------------------------------------------
 Center     Atomic      Atomic             Coordinates (Angstroms)
 Number     Number       Type             X           Y           Z
 ---------------------------------------------------------------------
      1          6           0       -3.649290    0.958334   -1.585436
      2          1           0       -4.616163    1.068789   -2.077043
      3          1           0       -3.242573    1.960625   -1.384778
      4          6           0       -5.045673    0.403578    0.359726
      5          1           0       -5.088574    1.406116    0.807481
      6          7           0       -3.816076    0.181805   -0.377731
      7          1           0       -2.975544    0.444223   -2.274526
      8          1           0       -5.131431   -0.333966    1.159382
      9          1           0       -5.902197    0.284102   -0.306704
     10          6           0       -2.703719   -0.175242    0.340669
     11          1           0       -2.910746   -0.682192    1.275175
     12          6           0       -1.400578    0.017387   -0.041251
     13          6           0       -0.296988   -0.442426    0.681630
     14          1           0       -1.181275    0.548209   -0.961006
     15          8           0       -0.456770   -1.080587    1.915902
     16          6           0        1.085841   -0.202982    0.251311
     17          6           0        1.768029   -1.280524   -0.451655
     18          6           0        1.755923    0.978752    0.528862
     19          8           0        1.205530   -2.379066   -0.628153
     20          6           0        3.122717   -1.035382   -0.907385
     21          6           0        3.051910    1.133771    0.078969
     22          1           0        1.275657    1.784350    1.070099
     23          1           0       -0.361867   -2.024631    1.724580
     24          1           0        3.617604   -1.828815   -1.453890
     25          6           0        3.748201    0.142987   -0.643493
     26          9           0        3.688301    2.280232    0.328383
     27          1           0        4.762475    0.341647   -0.966644
 ---------------------------------------------------------------------
                    Distance matrix (angstroms):
                    1          2          3          4          5
     1  C    0.000000
     2  H    1.090285   0.000000
     3  H    1.100123   1.778019   0.000000
     4  C    2.457904   2.562192   2.952771   0.000000
     5  H    2.828091   2.942353   2.919109   1.098821   0.000000
     6  N    1.445464   2.077148   2.123028   1.450839   2.126715
     7  H    1.092286   1.766554   1.778323   3.350578   3.858614
     8  H    3.376508   3.564782   3.912248   1.091227   1.775826
     9  H    2.676814   2.324590   3.323638   1.091804   1.778287
    10  C    2.426722   3.324213   2.798117   2.412498   2.899335
    11  H    3.379329   4.148705   3.764298   2.564149   3.053310
    12  C    2.885584   3.948402   2.995694   3.687363   4.031158
    13  C    4.282481   5.343156   4.326796   4.834186   5.137338
    14  H    2.578607   3.648972   2.534453   4.086419   4.373847
    15  O    5.158367   6.153371   5.282438   5.067787   5.372700
    16  C    5.209968   6.288998   5.108146   6.162397   6.404837
    17  C    5.970368   6.994217   6.040025   7.065485   7.471042
    18  C    5.804050   6.884935   5.441604   6.827968   6.863484
    19  O    5.968577   6.919473   6.260274   6.913505   7.483609
    20  C    7.091878   8.104684   7.051303   8.390398   8.736531
    21  C    6.907033   7.965673   6.515118   8.135285   8.177554
    22  H    5.655906   6.717892   5.145084   6.509253   6.380867
    23  H    5.537276   6.490040   5.817975   5.449501   5.912094
    24  H    7.784166   8.750963   7.837516   9.128261   9.559085
    25  C    7.501662   8.536672   7.261146   8.854749   9.043751
    26  F    7.697425   8.730280   7.146613   8.933371   8.833298
    27  H    8.457009   9.472095   8.177819   9.897619  10.065972
                    6          7          8          9         10
     6  N    0.000000
     7  H    2.091217   0.000000
     8  H    2.087797   4.128577   0.000000
     9  H    2.089835   3.530334   1.767907   0.000000
    10  C    1.371466   2.701273   2.566957   3.295505   0.000000
    11  H    2.073213   3.724700   2.250802   3.519210   1.083125
    12  C    2.444357   2.765904   3.935001   4.517319   1.371548
    13  C    3.727719   4.086523   4.859202   5.737857   2.445402
    14  H    2.723350   2.226107   4.569246   4.773360   2.129689
    15  O    4.259028   5.121421   4.793977   6.037800   2.889600
    16  C    4.957070   4.826342   6.284602   7.027183   3.790715
[...]
 Alpha virt. eigenvalues --   -0.03062   0.03807   0.04891   0.05070   0.05302
 Alpha virt. eigenvalues --    0.06080   0.06665   0.06803   0.07884   0.08391
 Alpha virt. eigenvalues --    0.08489   0.08717   0.09373   0.10368   0.11231
 Alpha virt. eigenvalues --    0.11433   0.11850   0.12362   0.13526   0.13830
 Alpha virt. eigenvalues --    0.14225   0.14873   0.14982   0.15718   0.15987
 Alpha virt. eigenvalues --    0.15998   0.16451   0.16904   0.17033   0.17351
 Alpha virt. eigenvalues --    0.18196   0.18580   0.18874   0.19007   0.19469
 Alpha virt. eigenvalues --    0.19657   0.20090   0.20517   0.20587   0.21478
 Alpha virt. eigenvalues --    0.21537   0.21948   0.22068   0.22385   0.22689
 Alpha virt. eigenvalues --    0.24134   0.24425   0.24657   0.25257   0.25669
 Alpha virt. eigenvalues --    0.26082   0.26498   0.26802   0.27002   0.27246
 Alpha virt. eigenvalues --    0.27825   0.28293   0.28774   0.29386   0.29491
 Alpha virt. eigenvalues --    0.30518   0.31478   0.32023   0.32730   0.33039
 Alpha virt. eigenvalues --    0.33222   0.34073   0.34831   0.35249   0.35428
 Alpha virt. eigenvalues --    0.35686   0.36551   0.37012   0.37526   0.37933
 Alpha virt. eigenvalues --    0.38338   0.38616   0.39045   0.39500   0.39881
 Alpha virt. eigenvalues --    0.40617   0.41771   0.41932   0.42520   0.43094
 Alpha virt. eigenvalues --    0.44151   0.44297   0.45962   0.46915   0.47330
 Alpha virt. eigenvalues --    0.48185   0.49605   0.49988   0.51595   0.51824
 Alpha virt. eigenvalues --    0.52844   0.52939   0.55225   0.55346   0.56552
 Alpha virt. eigenvalues --    0.57386   0.58323   0.60941   0.61238   0.62232
 Alpha virt. eigenvalues --    0.62376   0.63561   0.65447   0.65513   0.66065
 Alpha virt. eigenvalues --    0.66739   0.67862   0.68612   0.69186   0.69345
 Alpha virt. eigenvalues --    0.69625   0.70943   0.71132   0.71786   0.72481
 Alpha virt. eigenvalues --    0.72953   0.73856   0.73886   0.75364   0.76618
 Alpha virt. eigenvalues --    0.77267   0.78012   0.78543   0.79938   0.80469
 Alpha virt. eigenvalues --    0.83049   0.83465   0.85306   0.86458   0.86968
 Alpha virt. eigenvalues --    0.88541   0.89320   0.92368   0.93479   0.93882
 Alpha virt. eigenvalues --    0.94448   0.95079   0.97013   0.98083   0.98968
 Alpha virt. eigenvalues --    0.99622   1.01389   1.02092   1.04292   1.04614
 Alpha virt. eigenvalues --    1.04991   1.06367   1.06581   1.07299   1.10619
 Alpha virt. eigenvalues --    1.11072   1.12172   1.12441   1.12628   1.14479
 Alpha virt. eigenvalues --    1.15148   1.17326   1.18535   1.19055   1.20233
 Alpha virt. eigenvalues --    1.20697   1.23462   1.25210   1.29464   1.30187
 Alpha virt. eigenvalues --    1.30986   1.32781   1.33493   1.36367   1.37257
 Alpha virt. eigenvalues --    1.38926   1.43467   1.44017   1.46779   1.50975
 Alpha virt. eigenvalues --    1.51505   1.52076   1.52324   1.52439   1.54193
 Alpha virt. eigenvalues --    1.54907   1.56849   1.57853   1.58149   1.59367
 Alpha virt. eigenvalues --    1.60975   1.62782   1.63204   1.64585   1.64859
 Alpha virt. eigenvalues --    1.66857   1.66978   1.68129   1.68255   1.68549
 Alpha virt. eigenvalues --    1.69437   1.72667   1.74331   1.75734   1.76912
 Alpha virt. eigenvalues --    1.77951   1.79599   1.80902   1.81925   1.82846
 Alpha virt. eigenvalues --    1.83329   1.84611   1.85683   1.87185   1.89538
 Alpha virt. eigenvalues --    1.91672   1.94454   1.95019   1.95273   1.96114
 Alpha virt. eigenvalues --    1.99201   1.99909   2.02804   2.03674   2.05131
 Alpha virt. eigenvalues --    2.05985   2.06809   2.08887   2.09657   2.11249
 Alpha virt. eigenvalues --    2.12646   2.13338   2.14933   2.17184   2.19784
 Alpha virt. eigenvalues --    2.20116   2.21196   2.23842   2.24753   2.25460
 Alpha virt. eigenvalues --    2.29856   2.31022   2.33471   2.37225   2.38215
 Alpha virt. eigenvalues --    2.38703   2.41355   2.45433   2.47351   2.50049
 Alpha virt. eigenvalues --    2.51076   2.54124   2.55418   2.55471   2.58596
 Alpha virt. eigenvalues --    2.59430   2.63365   2.63806   2.66560   2.68958
 Alpha virt. eigenvalues --    2.70591   2.71326   2.71764   2.72907   2.75902
 Alpha virt. eigenvalues --    2.77230   2.79263   2.80026   2.80943   2.81155
 Alpha virt. eigenvalues --    2.83361   2.84222   2.84431   2.85308   2.86730
 Alpha virt. eigenvalues --    2.90070   2.90440   2.92608   2.94632   2.95007
 Alpha virt. eigenvalues --    2.95870   2.98116   3.01891   3.03854   3.06044
 Alpha virt. eigenvalues --    3.10551   3.13123   3.16485   3.16921   3.19559
 Alpha virt. eigenvalues --    3.19758   3.23019   3.24829   3.27003   3.28706
 Alpha virt. eigenvalues --    3.31540   3.34414   3.39861   3.41816   3.43822
 Alpha virt. eigenvalues --    3.51578   3.52310   3.58209   3.58864   3.64517
 Alpha virt. eigenvalues --    3.68695   3.71176   3.75572   3.76684   3.80725
 Alpha virt. eigenvalues --    3.81000   3.82530   3.85994   3.87417   3.87914
 Alpha virt. eigenvalues --    3.94301   3.95340   3.96322   4.01463   4.08148
 Alpha virt. eigenvalues --    4.08438   4.11462   4.17651   4.23240   4.28586
 Alpha virt. eigenvalues --    4.31684   4.36692   4.67249   4.90223   4.97465
 Alpha virt. eigenvalues --    4.97862   5.10891   5.17447   5.19839   5.39629
 Alpha virt. eigenvalues --    5.61357   5.88198   5.92313   6.44151   6.58487
 Alpha virt. eigenvalues --    6.88883  23.72357  23.90446  23.99801  24.04612
 Alpha virt. eigenvalues --   24.06219  24.08114  24.08403  24.11794  24.21090
 Alpha virt. eigenvalues --   24.23445  24.29272  35.69262  50.09713  50.21122
 Alpha virt. eigenvalues --   66.95701
          Condensed to atoms (all electrons):
               1          2          3          4          5          6
     1  C    5.250765   0.385273   0.414237  -0.062904   0.001415   0.236772
     2  H    0.385273   0.440144  -0.015497   0.003626  -0.005020  -0.042824
     3  H    0.414237  -0.015497   0.512728  -0.001074  -0.001199  -0.036954
     4  C   -0.062904   0.003626  -0.001074   5.194546   0.404043   0.253350
     5  H    0.001415  -0.005020  -0.001199   0.404043   0.525965  -0.039643
     6  N    0.236772  -0.042824  -0.036954   0.253350  -0.039643   6.748907
     7  H    0.413946  -0.016025  -0.053410  -0.000182   0.002274  -0.036352
     8  H   -0.004287   0.002821  -0.001657   0.403733  -0.027201  -0.100267
     9  H   -0.000097  -0.005106   0.002361   0.404199  -0.057850  -0.039283
    10  C   -0.035557   0.016964   0.007046  -0.181044  -0.024542   0.277763
    11  H    0.007776  -0.000219   0.000062  -0.035496   0.003172  -0.047414
    12  C    0.119393   0.026581  -0.020439  -0.036928   0.009680  -0.226452
    13  C   -0.120918  -0.014231  -0.001226  -0.026937   0.000799  -0.024066
    14  H   -0.005150  -0.000217  -0.005008  -0.000553   0.000907  -0.012226
    15  O    0.002219   0.000216   0.000385   0.000554   0.000068   0.001000
    16  C   -0.139861  -0.002926  -0.008583   0.023737   0.000220  -0.023689
    17  C   -0.003361   0.000997  -0.002642   0.007425  -0.000133   0.002936
    18  C    0.021512  -0.004627   0.004347  -0.015035   0.000618  -0.029915
    19  O    0.000074   0.000000   0.000010   0.000374   0.000008  -0.000103
    20  C    0.009573   0.000509  -0.000839   0.000064   0.000003   0.001023
    21  C   -0.008503  -0.000484   0.001438   0.000836  -0.000019   0.003876
    22  H    0.009535   0.000535  -0.000459  -0.002864  -0.000023  -0.012307
    23  H   -0.000430  -0.000110  -0.000037  -0.000036   0.000035  -0.000395
    24  H    0.000085   0.000005  -0.000014   0.000012   0.000000  -0.000017
    25  C   -0.009610  -0.000514  -0.000065   0.000200   0.000005   0.002425
    26  F   -0.000158  -0.000008  -0.000085   0.000000   0.000000   0.000007
    27  H   -0.000193  -0.000010   0.000008   0.000006   0.000000   0.000019
               7          8          9         10         11         12
     1  C    0.413946  -0.004287  -0.000097  -0.035557   0.007776   0.119393
     2  H   -0.016025   0.002821  -0.005106   0.016964  -0.000219   0.026581
     3  H   -0.053410  -0.001657   0.002361   0.007046   0.000062  -0.020439
     4  C   -0.000182   0.403733   0.404199  -0.181044  -0.035496  -0.036928
     5  H    0.002274  -0.027201  -0.057850  -0.024542   0.003172   0.009680
     6  N   -0.036352  -0.100267  -0.039283   0.277763  -0.047414  -0.226452
     7  H    0.514846  -0.001780  -0.001237   0.010883   0.000433  -0.022789
     8  H   -0.001780   0.528240  -0.026806   0.051327  -0.014244   0.011219
     9  H   -0.001237  -0.026806   0.526018  -0.023474   0.002959   0.009846
    10  C    0.010883   0.051327  -0.023474   9.834082   0.378539   0.868940
    11  H    0.000433  -0.014244   0.002959   0.378539   0.436129   0.076251
    12  C   -0.022789   0.011219   0.009846   0.868940   0.076251   9.523372
    13  C   -0.003745   0.017002   0.000839  -1.973297  -0.001200   1.249841
    14  H   -0.004524  -0.001166   0.000902   0.199652   0.003718   0.481356
    15  O    0.000423  -0.000308   0.000071  -0.099698  -0.001950  -0.385362
    16  C   -0.009571   0.004998   0.000328  -1.524331  -0.078271  -2.476405
    17  C   -0.002702   0.001674  -0.000128  -0.316072  -0.023890  -1.766165
    18  C    0.004356  -0.004063   0.000590  -1.822290   0.021287  -0.876856
    19  O    0.000009  -0.000158   0.000008   0.019434   0.001518   0.021746
    20  C   -0.000816  -0.000240  -0.000001   0.129800   0.010640   0.819395
    21  C    0.001450   0.000024  -0.000019   0.085251  -0.003193  -0.353577
    22  H   -0.000471  -0.000032  -0.000031  -0.164160   0.002059  -0.041623
    23  H   -0.000051   0.000105   0.000038  -0.026413   0.002220   0.048621
    24  H   -0.000014  -0.000004   0.000000   0.000354   0.000033   0.004214
    25  C   -0.000148   0.000115   0.000007  -0.153451  -0.005382  -0.608671
    26  F   -0.000091  -0.000001   0.000000  -0.001706  -0.000067   0.001278
    27  H    0.000007   0.000002   0.000000  -0.002530  -0.000101  -0.016251
              13         14         15         16         17         18
     1  C   -0.120918  -0.005150   0.002219  -0.139861  -0.003361   0.021512
     2  H   -0.014231  -0.000217   0.000216  -0.002926   0.000997  -0.004627
     3  H   -0.001226  -0.005008   0.000385  -0.008583  -0.002642   0.004347
     4  C   -0.026937  -0.000553   0.000554   0.023737   0.007425  -0.015035
     5  H    0.000799   0.000907   0.000068   0.000220  -0.000133   0.000618
     6  N   -0.024066  -0.012226   0.001000  -0.023689   0.002936  -0.029915
     7  H   -0.003745  -0.004524   0.000423  -0.009571  -0.002702   0.004356
     8  H    0.017002  -0.001166  -0.000308   0.004998   0.001674  -0.004063
     9  H    0.000839   0.000902   0.000071   0.000328  -0.000128   0.000590
    10  C   -1.973297   0.199652  -0.099698  -1.524331  -0.316072  -1.822290
    11  H   -0.001200   0.003718  -0.001950  -0.078271  -0.023890   0.021287
    12  C    1.249841   0.481356  -0.385362  -2.476405  -1.766165  -0.876856
    13  C    8.632624  -0.012729   0.514526   1.104338  -2.214906  -0.726840
    14  H   -0.012729   0.741712  -0.024521   0.083586   0.038022  -0.629830
    15  O    0.514526  -0.024521   8.123571   0.103634  -0.138466   0.059299
    16  C    1.104338   0.083586   0.103634  17.299452   0.024427  -6.560113
    17  C   -2.214906   0.038022  -0.138466   0.024427  14.782045  -4.353751
    18  C   -0.726840  -0.629830   0.059299  -6.560113  -4.353751  22.418394
    19  O   -0.042546   0.002284   0.006205  -0.134175   0.459400  -0.019787
    20  C    0.327408   0.024582  -0.055442  -2.948721  -1.072847   0.610790
    21  C   -0.177319  -0.018776   0.011656  -1.026417   0.080056   1.089631
    22  H   -0.049508  -0.137528   0.007131  -0.478461  -0.010767   1.495281
    23  H    0.019108  -0.001461   0.208160  -0.137108  -0.039538   0.092684
    24  H    0.003644  -0.000589  -0.000430  -0.082837  -0.134072   0.049097
    25  C   -0.489009   0.116503  -0.009318   1.096455   0.894627  -2.861942
    26  F    0.011261   0.016969   0.000022   0.141679   0.003411  -0.178277
    27  H   -0.009966   0.001554  -0.000023   0.087625   0.060535  -0.150072
              19         20         21         22         23         24
     1  C    0.000074   0.009573  -0.008503   0.009535  -0.000430   0.000085
     2  H    0.000000   0.000509  -0.000484   0.000535  -0.000110   0.000005
     3  H    0.000010  -0.000839   0.001438  -0.000459  -0.000037  -0.000014
     4  C    0.000374   0.000064   0.000836  -0.002864  -0.000036   0.000012
     5  H    0.000008   0.000003  -0.000019  -0.000023   0.000035   0.000000
     6  N   -0.000103   0.001023   0.003876  -0.012307  -0.000395  -0.000017
     7  H    0.000009  -0.000816   0.001450  -0.000471  -0.000051  -0.000014
     8  H   -0.000158  -0.000240   0.000024  -0.000032   0.000105  -0.000004
     9  H    0.000008  -0.000001  -0.000019  -0.000031   0.000038   0.000000
    10  C    0.019434   0.129800   0.085251  -0.164160  -0.026413   0.000354
    11  H    0.001518   0.010640  -0.003193   0.002059   0.002220   0.000033
    12  C    0.021746   0.819395  -0.353577  -0.041623   0.048621   0.004214
    13  C   -0.042546   0.327408  -0.177319  -0.049508   0.019108   0.003644
    14  H    0.002284   0.024582  -0.018776  -0.137528  -0.001461  -0.000589
    15  O    0.006205  -0.055442   0.011656   0.007131   0.208160  -0.000430
    16  C   -0.134175  -2.948721  -1.026417  -0.478461  -0.137108  -0.082837
    17  C    0.459400  -1.072847   0.080056  -0.010767  -0.039538  -0.134072
    18  C   -0.019787   0.610790   1.089631   1.495281   0.092684   0.049097
    19  O    8.447784  -0.302037  -0.019471  -0.003511   0.069980  -0.014598
    20  C   -0.302037   8.841671  -0.137102   0.029475   0.044231   0.532826
    21  C   -0.019471  -0.137102   8.625412  -0.089153   0.002881   0.044419
    22  H   -0.003511   0.029475  -0.089153   0.648195   0.003608   0.003462
    23  H    0.069980   0.044231   0.002881   0.003608   0.301471  -0.000452
    24  H   -0.014598   0.532826   0.044419   0.003462  -0.000452   0.448003
    25  C    0.022912  -0.444928  -1.739022  -0.338397   0.004628  -0.083610
    26  F    0.000124   0.014493   0.353125  -0.073482   0.000142   0.000915
    27  H    0.001894  -0.027424  -0.205545  -0.008470   0.000108  -0.010784
              25         26         27
     1  C   -0.009610  -0.000158  -0.000193
     2  H   -0.000514  -0.000008  -0.000010
     3  H   -0.000065  -0.000085   0.000008
     4  C    0.000200   0.000000   0.000006
     5  H    0.000005   0.000000   0.000000
     6  N    0.002425   0.000007   0.000019
     7  H   -0.000148  -0.000091   0.000007
     8  H    0.000115  -0.000001   0.000002
     9  H    0.000007   0.000000   0.000000
    10  C   -0.153451  -0.001706  -0.002530
    11  H   -0.005382  -0.000067  -0.000101
    12  C   -0.608671   0.001278  -0.016251
    13  C   -0.489009   0.011261  -0.009966
    14  H    0.116503   0.016969   0.001554
    15  O   -0.009318   0.000022  -0.000023
    16  C    1.096455   0.141679   0.087625
    17  C    0.894627   0.003411   0.060535
    18  C   -2.861942  -0.178277  -0.150072
    19  O    0.022912   0.000124   0.001894
    20  C   -0.444928   0.014493  -0.027424
    21  C   -1.739022   0.353125  -0.205545
    22  H   -0.338397  -0.073482  -0.008470
    23  H    0.004628   0.000142   0.000108
    24  H   -0.083610   0.000915  -0.010784
    25  C   10.210961  -0.253914   0.586440
    26  F   -0.253914   9.154777  -0.021459
    27  H    0.586440  -0.021459   0.436946
 Mulliken charges:
               1
     1  C   -0.481548
     2  H    0.230148
     3  H    0.206568
     4  C   -0.333653
     5  H    0.206419
     6  N    0.143829
     7  H    0.205280
     8  H    0.160953
     9  H    0.205866
    10  C    0.468531
    11  H    0.264632
    12  C   -0.440216
    13  C    0.007054
    14  H    0.142530
    15  O   -0.323618
    16  C    1.660992
    17  C   -0.276117
    18  C   -1.634489
    19  O   -0.517376
    20  C   -0.406086
    21  C   -0.521457
    22  H    0.211968
    23  H    0.408011
    24  H    0.240351
    25  C    0.062702
    26  F   -0.168955
    27  H    0.277682
 Sum of Mulliken charges =   0.00000
 Mulliken charges with hydrogens summed into heavy atoms:
               1
     1  C    0.160447
     4  C    0.239584
     6  N    0.143829
    10  C    0.733163
    12  C   -0.297686
    13  C    0.007054
    15  O    0.084393
    16  C    1.660992
    17  C   -0.276117
    18  C   -1.422521
    19  O   -0.517376
    20  C   -0.165736
    21  C   -0.521457
    25  C    0.340384
    26  F   -0.168955
 Electronic spatial extent (au):  <R**2>=           4477.5600
 Charge=              0.0000 electrons
 Dipole moment (field-independent basis, Debye):
    X=             11.7830    Y=             -4.7101    Z=              0.0041  Tot=             12.6895
 Quadrupole moment (field-independent basis, Debye-Ang):
   XX=            -50.9553   YY=           -101.3640   ZZ=            -91.0575
   XY=             -0.8753   XZ=              0.0167   YZ=              0.0309
 Traceless Quadrupole moment (field-independent basis, Debye-Ang):
   XX=             30.1703   YY=            -20.2384   ZZ=             -9.9319
   XY=             -0.8753   XZ=              0.0167   YZ=              0.0309
 Octapole moment (field-independent basis, Debye-Ang**2):
  XXX=            167.5933  YYY=            -36.6086  ZZZ=              0.0369  XYY=             66.0474
  XXY=            -20.5049  XXZ=             -0.0007  XZZ=              7.8597  YZZ=             -4.5220
  YYZ=              0.0036  XYZ=              0.0357
 Hexadecapole moment (field-independent basis, Debye-Ang**3):
 XXXX=          -3366.4154 YYYY=          -1286.9727 ZZZZ=           -109.8233 XXXY=             -6.8824
 XXXZ=              0.2164 YYYX=             38.2645 YYYZ=              0.1717 ZZZX=              0.0513
 ZZZY=             -0.0436 XXYY=           -984.2485 XXZZ=           -795.9690 YYZZ=           -211.1597
 XXYZ=              0.4278 YYXZ=             -0.1262 ZZXY=             12.5067
 N-N= 9.424125850510D+02 E-N=-3.595850873800D+03  KE= 7.284802746753D+02
 1\1\GINC-SM2\FOpt\RwB97XD TD-FC\6-311++G(d,p)\C11H12F1N1O2\CA12053\01-
 Feb-2017\0\\# wb97xd 6-311++g** opt td=(nstates=1,root=1) SCRF=(PCM,so
 lvent=dichloromethane)\\restarted opt\\0,1\C,-3.6345921738,1.816636307
 6,-0.8308074377\H,-4.6157457301,2.2556420879,-1.0014494963\H,-3.040564
 0469,2.5093950549,-0.2254205269\C,-5.1413076779,0.1175057145,0.1760195
 177\H,-5.6210437306,0.8443647976,0.8382161808\N,-3.7932497304,0.545590
 3366,-0.1514935789\H,-3.1384044042,1.6805804334,-1.7973961767\H,-5.107
 5773781,-0.8479955534,0.6784760368\H,-5.7413722138,0.022185292,-0.7337
 312846\C,-2.7322837156,-0.2026659356,0.1668693018\H,-2.9517723969,-1.1
 35576051,0.6731178527\C,-1.4117915074,0.1223107055,-0.0980116857\C,-0.
 3526622775,-0.7321016915,0.2735661875\H,-1.1810222102,1.0498573177,-0.
 6006062647\O,-0.6908901488,-1.8750607282,0.8960209532\C,1.0311883687,-
 0.4303930577,0.0164603993\C,2.0841974166,-1.3858881563,0.4385717312\C,
 1.4448825944,0.7417270736,-0.624490508\O,1.757394971,-2.4625699853,1.0
 239407037\C,3.4454500288,-1.0693044695,0.1746830654\C,2.7989174178,0.9
 755686539,-0.844816456\H,0.7452116214,1.4927449676,-0.9649120904\H,0.1
 60275501,-2.3515141004,1.0830945611\H,4.1891437701,-1.7889444287,0.495
 95982\C,3.8163263874,0.1051418264,-0.4648589333\F,3.1340389831,2.11927
 54967,-1.4654540219\H,4.8499762099,0.3525833996,-0.6690734931\\Version
 =ES64L-G09RevD.01\State=1-A\HF=-731.385566\RMSD=9.163e-09\RMSF=1.261e-
 06\Dipole=-3.4736845,1.9356081,-0.7621687\PG=C01 [X(C11H12F1N1O2)]\\@


 THE POLHOLDE ROLLS WITHOUT SLIPPING ON THE HERPOLHOLDE LYING IN
 THE INVARIABLE PLANE.
 H.GOLDSTEIN, "CLASSICAL MECHANICS", PG 161
 Job cpu time:       6 days  2 hours 12 minutes 52.1 seconds.
 File lengths (MBytes):  RWF=    270 Int=      0 D2E=      0 Chk=     26 Scr=      1
 Normal termination of Gaussian 09 at Wed Feb  1 09:05:37 2017.
