 Entering Gaussian System, Link 0=g09
 Input=4_opt_DCM_calcfc.com
 Output=4_opt_DCM_calcfc.out
 Initial command:
 /share/apps/gaussian/g09_D01/g09/l1.exe "/tmp/3908518.1.serial.q/Gau-20125.inp" -scrdir="/tmp/3908518.1.serial.q/"
 Entering Link 1 = /share/apps/gaussian/g09_D01/g09/l1.exe PID=     20126.
  
 Copyright (c) 1988,1990,1992,1993,1995,1998,2003,2009,2013,
            Gaussian, Inc.  All Rights Reserved.
  
 This is part of the Gaussian(R) 09 program.  It is based on
 the Gaussian(R) 03 system (copyright 2003, Gaussian, Inc.),
 the Gaussian(R) 98 system (copyright 1998, Gaussian, Inc.),
 the Gaussian(R) 94 system (copyright 1995, Gaussian, Inc.),
 the Gaussian 92(TM) system (copyright 1992, Gaussian, Inc.),
 the Gaussian 90(TM) system (copyright 1990, Gaussian, Inc.),
 the Gaussian 88(TM) system (copyright 1988, Gaussian, Inc.),
 the Gaussian 86(TM) system (copyright 1986, Carnegie Mellon
 University), and the Gaussian 82(TM) system (copyright 1983,
 Carnegie Mellon University). Gaussian is a federally registered
 trademark of Gaussian, Inc.
  
 This software contains proprietary and confidential information,
 including trade secrets, belonging to Gaussian, Inc.
  
 This software is provided under written license and may be
 used, copied, transmitted, or stored only in accord with that
 written license.
  
 The following legend is applicable only to US Government
 contracts under FAR:
  
                    RESTRICTED RIGHTS LEGEND
  
 Use, reproduction and disclosure by the US Government is
 subject to restrictions as set forth in subparagraphs (a)
 and (c) of the Commercial Computer Software - Restricted
 Rights clause in FAR 52.227-19.
  
 Gaussian, Inc.
 340 Quinnipiac St., Bldg. 40, Wallingford CT 06492
  
  
 ---------------------------------------------------------------
 Warning -- This program may not be used in any manner that
 competes with the business of Gaussian, Inc. or will provide
 assistance to any competitor of Gaussian, Inc.  The licensee
 of this program is prohibited from giving any competitor of
 Gaussian, Inc. access to this program.  By using this program,
 the user acknowledges that Gaussian, Inc. is engaged in the
 business of creating and licensing software in the field of
 computational chemistry and represents and warrants to the
 licensee that it is not a competitor of Gaussian, Inc. and that
 it will not use this program in any manner prohibited above.
 ---------------------------------------------------------------
  

 Cite this work as:
 Gaussian 09, Revision D.01,
 M. J. Frisch, G. W. Trucks, H. B. Schlegel, G. E. Scuseria, 
 M. A. Robb, J. R. Cheeseman, G. Scalmani, V. Barone, B. Mennucci, 
 G. A. Petersson, H. Nakatsuji, M. Caricato, X. Li, H. P. Hratchian, 
 A. F. Izmaylov, J. Bloino, G. Zheng, J. L. Sonnenberg, M. Hada, 
 M. Ehara, K. Toyota, R. Fukuda, J. Hasegawa, M. Ishida, T. Nakajima, 
 Y. Honda, O. Kitao, H. Nakai, T. Vreven, J. A. Montgomery, Jr., 
 J. E. Peralta, F. Ogliaro, M. Bearpark, J. J. Heyd, E. Brothers, 
 K. N. Kudin, V. N. Staroverov, T. Keith, R. Kobayashi, J. Normand, 
 K. Raghavachari, A. Rendell, J. C. Burant, S. S. Iyengar, J. Tomasi, 
 M. Cossi, N. Rega, J. M. Millam, M. Klene, J. E. Knox, J. B. Cross, 
 V. Bakken, C. Adamo, J. Jaramillo, R. Gomperts, R. E. Stratmann, 
 O. Yazyev, A. J. Austin, R. Cammi, C. Pomelli, J. W. Ochterski, 
 R. L. Martin, K. Morokuma, V. G. Zakrzewski, G. A. Voth, 
 P. Salvador, J. J. Dannenberg, S. Dapprich, A. D. Daniels, 
 O. Farkas, J. B. Foresman, J. V. Ortiz, J. Cioslowski, 
 and D. J. Fox, Gaussian, Inc., Wallingford CT, 2013.
 
 ******************************************
 Gaussian 09:  ES64L-G09RevD.01 24-Apr-2013
                30-Jan-2017 
 ******************************************
 %chk=4_opt_DCM.chk
 %mem=2GB
 %nproc=4
 Will use up to    4 processors via shared memory.
 ----------------------------------------------------------------------
 # wb97xd 6-311++g** opt=CalcFC guess=read geom=allcheck SCRF=(PCM,solv
 ent=dichloromethane)
 ----------------------------------------------------------------------
 1/10=4,14=-1,18=20,19=15,26=3,29=7,38=1/1,3;
 2/9=110,12=2,40=1/2;
 3/5=4,6=6,7=1111,11=2,14=-4,16=1,25=1,30=1,70=2201,71=2,72=9,74=-58,116=-2,140=1/1,2,3;
 4/5=1/1;
 5/5=2,38=6,53=9/2;
 8/6=4,10=90,11=11/1;
 11/6=1,8=1,9=11,15=111,16=1/1,2,10;
 10/6=1,13=1/2;
 6/7=2,8=2,9=2,10=2,28=1/1;
 7/10=1,18=20,25=1/1,2,3,16;
 1/10=4,14=-1,18=20,19=15,26=3/3(2);
 2/9=110/2;
 99//99;
 2/9=110/2;
 3/5=4,6=6,7=1111,11=2,14=-2,16=1,25=1,30=1,70=2205,71=1,72=9,74=-58/1,2,3;
 4/5=5,16=3,69=1/1;
 5/5=2,38=5,53=9/2;
 7//1,2,3,16;
 1/14=-1,18=20,19=15,26=3/3(-5);
 2/9=110/2;
 6/7=2,8=2,9=2,10=2,19=2,28=1/1;
 99/9=1/99;
 Structure from the checkpoint file:  "4_opt_DCM.chk"
 -----------
 Geom Opt s0
 -----------
 Charge =  0 Multiplicity = 1
 Redundant internal coordinates found in file.
 C,0,-3.7497500938,2.2477261113,-0.0477358847
 H,0,-4.760930778,2.6353905289,-0.1690087674
 H,0,-3.3346317531,2.6352603705,0.8901579266
 C,0,-5.0749702971,0.1515881028,0.1050470675
 H,0,-5.5166669207,0.3722196708,1.0832300979
 N,0,-3.7867462409,0.7996955378,-0.0493909661
 H,0,-3.1371688843,2.613627651,-0.8768660719
 H,0,-4.9523518728,-0.9275553298,0.0163651984
 H,0,-5.7662040188,0.4857430881,-0.6737075207
 C,0,-2.6461566408,0.0944784944,-0.0252773018
 H,0,-2.7624261444,-0.9852157638,-0.0083141285
 C,0,-1.3768665083,0.5888052813,-0.0282412204
 C,0,-0.2770236565,-0.3531171977,-0.026636891
 H,0,-1.1924608029,1.6518379,-0.0214372282
 O,0,-0.4844265837,-1.5790718436,-0.0366200967
 C,0,1.1291795768,0.136525687,-0.0088074031
 C,0,2.18785849,-0.7998937225,0.0028409679
 C,0,1.4482970133,1.5042867319,-0.003734534
 O,0,1.9897290207,-2.1201741444,-0.0019260643
 C,0,3.5148886085,-0.3502429276,0.0201183444
 C,0,2.7585672358,1.9087927153,0.0128596968
 H,0,0.6802384979,2.2652000013,-0.0129522062
 H,0,1.0126835392,-2.252971295,-0.0170412867
 H,0,4.3031625734,-1.0927042093,0.0288906047
 C,0,3.8057799256,0.9977912077,0.0251756413
 F,0,3.041247033,3.2308152197,0.017271252
 H,0,4.828705601,1.3541185017,0.0385236208
 Recover connectivity data from disk.

 GradGradGradGradGradGradGradGradGradGradGradGradGradGradGradGradGradGrad
 Berny optimization.
 Initialization pass.
                           ----------------------------
                           !    Initial Parameters    !
                           ! (Angstroms and Degrees)  !
 --------------------------                            --------------------------
 ! Name  Definition              Value          Derivative Info.                !
 --------------------------------------------------------------------------------
 ! R1    R(1,2)                  1.0897         calculate D2E/DX2 analytically  !
 ! R2    R(1,3)                  1.0964         calculate D2E/DX2 analytically  !
 ! R3    R(1,6)                  1.4485         calculate D2E/DX2 analytically  !
 ! R4    R(1,7)                  1.0939         calculate D2E/DX2 analytically  !
 ! R5    R(4,5)                  1.0957         calculate D2E/DX2 analytically  !
 ! R6    R(4,6)                  1.4503         calculate D2E/DX2 analytically  !
 ! R7    R(4,8)                  1.0897         calculate D2E/DX2 analytically  !
 ! R8    R(4,9)                  1.0936         calculate D2E/DX2 analytically  !
 ! R9    R(6,10)                 1.3412         calculate D2E/DX2 analytically  !
 ! R10   R(10,11)                1.0861         calculate D2E/DX2 analytically  !
 ! R11   R(10,12)                1.3622         calculate D2E/DX2 analytically  !
 ! R12   R(12,13)                1.4481         calculate D2E/DX2 analytically  !
 ! R13   R(12,14)                1.0789         calculate D2E/DX2 analytically  !
 ! R14   R(13,15)                1.2434         calculate D2E/DX2 analytically  !
 ! R15   R(13,16)                1.4891         calculate D2E/DX2 analytically  !
 ! R16   R(16,17)                1.4134         calculate D2E/DX2 analytically  !
 ! R17   R(16,18)                1.4045         calculate D2E/DX2 analytically  !
 ! R18   R(17,19)                1.3351         calculate D2E/DX2 analytically  !
 ! R19   R(17,20)                1.4012         calculate D2E/DX2 analytically  !
 ! R20   R(18,21)                1.3714         calculate D2E/DX2 analytically  !
 ! R21   R(18,22)                1.0812         calculate D2E/DX2 analytically  !
 ! R22   R(19,23)                0.9861         calculate D2E/DX2 analytically  !
 ! R23   R(20,24)                1.0829         calculate D2E/DX2 analytically  !
 ! R24   R(20,25)                1.3791         calculate D2E/DX2 analytically  !
 ! R25   R(21,25)                1.3881         calculate D2E/DX2 analytically  !
 ! R26   R(21,26)                1.3519         calculate D2E/DX2 analytically  !
 ! R27   R(25,27)                1.0833         calculate D2E/DX2 analytically  !
 ! A1    A(2,1,3)              108.7102         calculate D2E/DX2 analytically  !
 ! A2    A(2,1,6)              109.3784         calculate D2E/DX2 analytically  !
 ! A3    A(2,1,7)              108.439          calculate D2E/DX2 analytically  !
 ! A4    A(3,1,6)              111.3451         calculate D2E/DX2 analytically  !
 ! A5    A(3,1,7)              108.5492         calculate D2E/DX2 analytically  !
 ! A6    A(6,1,7)              110.3542         calculate D2E/DX2 analytically  !
 ! A7    A(5,4,6)              111.293          calculate D2E/DX2 analytically  !
 ! A8    A(5,4,8)              108.5068         calculate D2E/DX2 analytically  !
 ! A9    A(5,4,9)              108.6265         calculate D2E/DX2 analytically  !
 ! A10   A(6,4,8)              109.5074         calculate D2E/DX2 analytically  !
 ! A11   A(6,4,9)              110.43           calculate D2E/DX2 analytically  !
 ! A12   A(8,4,9)              108.4074         calculate D2E/DX2 analytically  !
 ! A13   A(1,6,4)              117.9883         calculate D2E/DX2 analytically  !
 ! A14   A(1,6,10)             120.2578         calculate D2E/DX2 analytically  !
 ! A15   A(4,6,10)             121.2309         calculate D2E/DX2 analytically  !
 ! A16   A(6,10,11)            115.5919         calculate D2E/DX2 analytically  !
 ! A17   A(6,10,12)            126.9835         calculate D2E/DX2 analytically  !
 ! A18   A(11,10,12)           117.4233         calculate D2E/DX2 analytically  !
 ! A19   A(10,12,13)           118.144          calculate D2E/DX2 analytically  !
 ! A20   A(10,12,14)           121.118          calculate D2E/DX2 analytically  !
 ! A21   A(13,12,14)           120.7349         calculate D2E/DX2 analytically  !
 ! A22   A(12,13,15)           120.9733         calculate D2E/DX2 analytically  !
 ! A23   A(12,13,16)           120.223          calculate D2E/DX2 analytically  !
 ! A24   A(15,13,16)           118.8034         calculate D2E/DX2 analytically  !
 ! A25   A(13,16,17)           119.3116         calculate D2E/DX2 analytically  !
 ! A26   A(13,16,18)           122.3313         calculate D2E/DX2 analytically  !
 ! A27   A(17,16,18)           118.3572         calculate D2E/DX2 analytically  !
 ! A28   A(16,17,19)           122.9553         calculate D2E/DX2 analytically  !
 ! A29   A(16,17,20)           119.7914         calculate D2E/DX2 analytically  !
 ! A30   A(19,17,20)           117.2533         calculate D2E/DX2 analytically  !
 ! A31   A(16,18,21)           120.2897         calculate D2E/DX2 analytically  !
 ! A32   A(16,18,22)           121.5957         calculate D2E/DX2 analytically  !
 ! A33   A(21,18,22)           118.1146         calculate D2E/DX2 analytically  !
 ! A34   A(17,19,23)           106.2757         calculate D2E/DX2 analytically  !
 ! A35   A(17,20,24)           117.999          calculate D2E/DX2 analytically  !
 ! A36   A(17,20,25)           120.8957         calculate D2E/DX2 analytically  !
 ! A37   A(24,20,25)           121.1053         calculate D2E/DX2 analytically  !
 ! A38   A(18,21,25)           121.8258         calculate D2E/DX2 analytically  !
 ! A39   A(18,21,26)           119.226          calculate D2E/DX2 analytically  !
 ! A40   A(25,21,26)           118.9482         calculate D2E/DX2 analytically  !
 ! A41   A(20,25,21)           118.8403         calculate D2E/DX2 analytically  !
 ! A42   A(20,25,27)           121.3826         calculate D2E/DX2 analytically  !
 ! A43   A(21,25,27)           119.7771         calculate D2E/DX2 analytically  !
 ! D1    D(2,1,6,4)            -13.7595         calculate D2E/DX2 analytically  !
 ! D2    D(2,1,6,10)           174.4326         calculate D2E/DX2 analytically  !
 ! D3    D(3,1,6,4)            106.4089         calculate D2E/DX2 analytically  !
 ! D4    D(3,1,6,10)           -65.399          calculate D2E/DX2 analytically  !
 ! D5    D(7,1,6,4)           -132.9757         calculate D2E/DX2 analytically  !
 ! D6    D(7,1,6,10)            55.2164         calculate D2E/DX2 analytically  !
 ! D7    D(5,4,6,1)            -63.8638         calculate D2E/DX2 analytically  !
 ! D8    D(5,4,6,10)           107.8604         calculate D2E/DX2 analytically  !
 ! D9    D(8,4,6,1)            176.1699         calculate D2E/DX2 analytically  !
 ! D10   D(8,4,6,10)           -12.1059         calculate D2E/DX2 analytically  !
 ! D11   D(9,4,6,1)             56.8657         calculate D2E/DX2 analytically  !
 ! D12   D(9,4,6,10)          -131.4102         calculate D2E/DX2 analytically  !
 ! D13   D(1,6,10,11)          178.8242         calculate D2E/DX2 analytically  !
 ! D14   D(1,6,10,12)           -1.6089         calculate D2E/DX2 analytically  !
 ! D15   D(4,6,10,11)            7.286          calculate D2E/DX2 analytically  !
 ! D16   D(4,6,10,12)         -173.1471         calculate D2E/DX2 analytically  !
 ! D17   D(6,10,12,13)        -178.7551         calculate D2E/DX2 analytically  !
 ! D18   D(6,10,12,14)           1.8809         calculate D2E/DX2 analytically  !
 ! D19   D(11,10,12,13)          0.8049         calculate D2E/DX2 analytically  !
 ! D20   D(11,10,12,14)       -178.5591         calculate D2E/DX2 analytically  !
 ! D21   D(10,12,13,15)          0.75           calculate D2E/DX2 analytically  !
 ! D22   D(10,12,13,16)       -179.0677         calculate D2E/DX2 analytically  !
 ! D23   D(14,12,13,15)       -179.8835         calculate D2E/DX2 analytically  !
 ! D24   D(14,12,13,16)          0.2989         calculate D2E/DX2 analytically  !
 ! D25   D(12,13,16,17)        179.5174         calculate D2E/DX2 analytically  !
 ! D26   D(12,13,16,18)         -0.5155         calculate D2E/DX2 analytically  !
 ! D27   D(15,13,16,17)         -0.3042         calculate D2E/DX2 analytically  !
 ! D28   D(15,13,16,18)        179.6629         calculate D2E/DX2 analytically  !
 ! D29   D(13,16,17,19)          0.0283         calculate D2E/DX2 analytically  !
 ! D30   D(13,16,17,20)       -179.9779         calculate D2E/DX2 analytically  !
 ! D31   D(18,16,17,19)       -179.9401         calculate D2E/DX2 analytically  !
 ! D32   D(18,16,17,20)          0.0537         calculate D2E/DX2 analytically  !
 ! D33   D(13,16,18,21)        179.9989         calculate D2E/DX2 analytically  !
 ! D34   D(13,16,18,22)         -0.0199         calculate D2E/DX2 analytically  !
 ! D35   D(17,16,18,21)         -0.0338         calculate D2E/DX2 analytically  !
 ! D36   D(17,16,18,22)        179.9475         calculate D2E/DX2 analytically  !
 ! D37   D(16,17,19,23)          0.1598         calculate D2E/DX2 analytically  !
 ! D38   D(20,17,19,23)       -179.8341         calculate D2E/DX2 analytically  !
 ! D39   D(16,17,20,24)        179.9896         calculate D2E/DX2 analytically  !
 ! D40   D(16,17,20,25)         -0.0382         calculate D2E/DX2 analytically  !
 ! D41   D(19,17,20,24)         -0.0163         calculate D2E/DX2 analytically  !
 ! D42   D(19,17,20,25)        179.9559         calculate D2E/DX2 analytically  !
 ! D43   D(16,18,21,25)         -0.0027         calculate D2E/DX2 analytically  !
 ! D44   D(16,18,21,26)        179.9917         calculate D2E/DX2 analytically  !
 ! D45   D(22,18,21,25)       -179.9846         calculate D2E/DX2 analytically  !
 ! D46   D(22,18,21,26)          0.0098         calculate D2E/DX2 analytically  !
 ! D47   D(17,20,25,21)          0.0015         calculate D2E/DX2 analytically  !
 ! D48   D(17,20,25,27)        179.9988         calculate D2E/DX2 analytically  !
 ! D49   D(24,20,25,21)        179.9728         calculate D2E/DX2 analytically  !
 ! D50   D(24,20,25,27)         -0.0299         calculate D2E/DX2 analytically  !
 ! D51   D(18,21,25,20)          0.0194         calculate D2E/DX2 analytically  !
 ! D52   D(18,21,25,27)       -179.978          calculate D2E/DX2 analytically  !
 ! D53   D(26,21,25,20)       -179.975          calculate D2E/DX2 analytically  !
 ! D54   D(26,21,25,27)          0.0276         calculate D2E/DX2 analytically  !
 --------------------------------------------------------------------------------
 Trust Radius=3.00D-01 FncErr=1.00D-07 GrdErr=1.00D-06
 Number of steps in this run=    134 maximum allowed number of steps=    162.
 GradGradGradGradGradGradGradGradGradGradGradGradGradGradGradGradGradGrad

                          Input orientation:                          
 ---------------------------------------------------------------------
 Center     Atomic      Atomic             Coordinates (Angstroms)
 Number     Number       Type             X           Y           Z
 ---------------------------------------------------------------------
      1          6           0       -3.749750    2.247726   -0.047736
      2          1           0       -4.760931    2.635391   -0.169009
      3          1           0       -3.334632    2.635260    0.890158
      4          6           0       -5.074970    0.151588    0.105047
      5          1           0       -5.516667    0.372220    1.083230
      6          7           0       -3.786746    0.799696   -0.049391
      7          1           0       -3.137169    2.613628   -0.876866
      8          1           0       -4.952352   -0.927555    0.016365
      9          1           0       -5.766204    0.485743   -0.673708
     10          6           0       -2.646157    0.094478   -0.025277
     11          1           0       -2.762426   -0.985216   -0.008314
     12          6           0       -1.376867    0.588805   -0.028241
     13          6           0       -0.277024   -0.353117   -0.026637
     14          1           0       -1.192461    1.651838   -0.021437
     15          8           0       -0.484427   -1.579072   -0.036620
     16          6           0        1.129180    0.136526   -0.008807
     17          6           0        2.187858   -0.799894    0.002841
     18          6           0        1.448297    1.504287   -0.003735
     19          8           0        1.989729   -2.120174   -0.001926
     20          6           0        3.514889   -0.350243    0.020118
     21          6           0        2.758567    1.908793    0.012860
     22          1           0        0.680238    2.265200   -0.012952
     23          1           0        1.012684   -2.252971   -0.017041
     24          1           0        4.303163   -1.092704    0.028891
     25          6           0        3.805780    0.997791    0.025176
     26          9           0        3.041247    3.230815    0.017271
     27          1           0        4.828706    1.354119    0.038524
 ---------------------------------------------------------------------
                    Distance matrix (angstroms):
                    1          2          3          4          5
     1  C    0.000000
     2  H    1.089714   0.000000
     3  H    1.096426   1.776559   0.000000
     4  C    2.484622   2.518532   3.132699   0.000000
     5  H    2.814001   2.694658   3.149588   1.095726   0.000000
     6  N    1.448504   2.081615   2.111032   1.450316   2.111443
     7  H    1.093891   1.771479   1.778154   3.283423   3.811548
     8  H    3.395994   3.572896   4.009263   1.089702   1.773716
     9  H    2.750002   2.426166   3.602588   1.093582   1.778197
    10  C    2.419690   3.308952   2.787040   2.432978   3.089621
    11  H    3.380573   4.138675   3.773926   2.579348   3.258825
    12  C    2.895337   3.957299   2.977294   3.726244   4.291879
    13  C    4.338739   5.390443   4.372629   4.826216   5.404792
    14  H    2.625929   3.704474   2.527256   4.164208   4.642895
    15  O    5.030591   6.005640   5.171381   4.907988   5.512263
    16  C    5.316262   6.400265   5.193980   6.205213   6.739093
    17  C    6.674260   7.753476   6.563956   7.325602   7.867706
    18  C    5.251127   6.313574   4.995453   6.662931   7.139593
    19  O    7.212647   8.259220   7.194358   7.421747   7.983456
    20  C    7.715505   8.799941   7.522375   8.604924   9.122563
    21  C    6.517418   7.556710   6.198748   8.028734   8.484471
    22  H    4.430160   5.455980   4.131796   6.132186   6.571653
    23  H    6.552709   7.566624   6.604314   6.546475   7.122825
    24  H    8.718586   9.802839   8.542564   9.460626   9.984322
    25  C    7.658570   8.723988   7.376651   8.921332   9.403129
    26  F    6.862094   7.827082   6.462851   8.681148   9.085468
    27  H    8.625304   9.677079   8.307026   9.976638  10.444246
                    6          7          8          9         10
     6  N    0.000000
     7  H    2.096906   0.000000
     8  H    2.084792   4.078324   0.000000
     9  H    2.099188   3.388361   1.770866   0.000000
    10  C    1.341215   2.704147   2.522860   3.210646   0.000000
    11  H    2.058355   3.721087   2.190824   3.410154   1.086069
    12  C    2.419182   2.814025   3.883997   4.437740   1.362155
    13  C    3.694272   4.207719   4.710682   5.590482   2.411044
    14  H    2.730796   2.332099   4.559767   4.764909   2.130402
    15  O    4.069891   5.032076   4.515489   5.706708   2.733857
    16  C    4.960622   5.009121   6.173972   6.936163   3.775606
    17  C    6.185250   6.386073   7.141364   8.085647   4.916136
    18  C    5.282444   4.797863   6.847084   7.316783   4.330424
    19  O    6.472678   7.032744   7.043803   8.209543   5.137769
    20  C    7.391959   7.337505   8.486900   9.344461   6.177242
    21  C    6.638908   6.004008   8.216030   8.669958   5.701248
    22  H    4.701381   3.929421   6.474614   6.720096   3.972038
    23  H    5.688088   6.453244   6.110605   7.340646   4.347148
    24  H    8.308666   8.361568   9.256996  10.216520   7.050204
    25  C    7.595476   7.185342   8.967269   9.611114   6.515060
    26  F    7.248191   6.273215   9.010531   9.251166   6.494996
    27  H    8.633720   8.116616  10.043685  10.654270   7.580523
                   11         12         13         14         15
    11  H    0.000000
    12  C    2.097073   0.000000
    13  C    2.564588   1.448059   0.000000
    14  H    3.069041   1.078930   2.204064   0.000000
    15  O    2.354304   2.344400   1.243415   3.307616   0.000000
    16  C    4.050049   2.546606   1.489119   2.772426   2.355371
    17  C    4.953765   3.825796   2.505219   4.175899   2.783843
    18  C    4.891608   2.969892   2.535193   2.644936   3.639176
    19  O    4.885811   4.321253   2.874242   4.935057   2.532872
    20  C    6.309412   4.981307   3.792202   5.115583   4.184228
    21  C    6.233546   4.341183   3.785843   3.959523   4.762841
    22  H    4.734677   2.653717   2.787853   1.970606   4.016893
    23  H    3.982303   3.712919   2.296276   4.484442   1.641908
    24  H    7.066504   5.923974   4.639847   6.143038   4.812676
    25  C    6.861106   5.199033   4.300805   5.041067   5.004989
    26  F    7.173437   5.148011   4.884406   4.518733   5.963916
    27  H    7.943548   6.252942   5.383992   6.028821   6.069483
                   16         17         18         19         20
    16  C    0.000000
    17  C    1.413442   0.000000
    18  C    1.404504   2.419967   0.000000
    19  O    2.415220   1.335072   3.664679   0.000000
    20  C    2.435033   1.401247   2.776806   2.336505   0.000000
    21  C    2.407551   2.768175   1.371389   4.101695   2.382292
    22  H    2.175504   3.415841   1.081197   4.576723   3.857055
    23  H    2.392349   1.868921   3.782449   0.986145   3.143690
    24  H    3.403909   2.135633   3.859493   2.531525   1.082913
    25  C    2.811961   2.418644   2.411452   3.608391   1.379072
    26  F    3.637487   4.120084   2.349219   5.453361   3.612246
    27  H    3.895031   3.408096   3.384006   4.486885   2.152046
                   21         22         23         24         25
    21  C    0.000000
    22  H    2.108825   0.000000
    23  H    4.513234   4.530387   0.000000
    24  H    3.375650   4.939924   3.489353   0.000000
    25  C    1.388067   3.372949   4.286097   2.148854   0.000000
    26  F    1.351914   2.551017   5.847064   4.503930   2.360290
    27  H    2.143314   4.247646   5.251305   2.502645   1.083293
                   26         27
    26  F    0.000000
    27  H    2.591804   0.000000
 Stoichiometry    C11H12FNO2
 Framework group  C1[X(C11H12FNO2)]
 Deg. of freedom    75
 Full point group                 C1      NOp   1
 Largest Abelian subgroup         C1      NOp   1
 Largest concise Abelian subgroup C1      NOp   1
                         Standard orientation:                         
 ---------------------------------------------------------------------
 Center     Atomic      Atomic             Coordinates (Angstroms)
 Number     Number       Type             X           Y           Z
 ---------------------------------------------------------------------
      1          6           0        3.773719    1.787609    0.045851
      2          1           0        4.784960    2.175226    0.166776
      3          1           0        3.358265    2.175232   -0.891857
      4          6           0        5.098802   -0.308568   -0.107589
      5          1           0        5.540141   -0.087877   -1.085920
      6          7           0        3.810661    0.339577    0.047381
      7          1           0        3.161462    2.153470    0.875239
      8          1           0        4.976176   -1.387713   -0.018945
      9          1           0        5.790340    0.025501    0.670933
     10          6           0        2.670035   -0.365595    0.023640
     11          1           0        2.786257   -1.445292    0.006550
     12          6           0        1.400765    0.128780    0.027116
     13          6           0        0.300886   -0.813100    0.025851
     14          1           0        1.216398    1.191821    0.020463
     15          8           0        0.508246   -2.039063    0.035662
     16          6           0       -1.105305   -0.323402    0.008585
     17          6           0       -2.164024   -1.259780   -0.002739
     18          6           0       -1.424372    1.044371    0.003737
     19          8           0       -1.965943   -2.580069    0.001852
     20          6           0       -3.491043   -0.810078   -0.019485
     21          6           0       -2.734633    1.448929   -0.012336
     22          1           0       -0.656281    1.805255    0.012726
     23          1           0       -0.988897   -2.712904    0.016592
     24          1           0       -4.279349   -1.552508   -0.028020
     25          6           0       -3.781885    0.537968   -0.024330
     26          9           0       -3.017264    2.770962   -0.016540
     27          1           0       -4.804802    0.894335   -0.037268
 ---------------------------------------------------------------------
 Rotational constants (GHZ):      1.0613111      0.2927762      0.2302058
 Standard basis: 6-311++G(d,p) (5D, 7F)
 There are   429 symmetry adapted cartesian basis functions of A   symmetry.
 There are   414 symmetry adapted basis functions of A   symmetry.
   414 basis functions,   648 primitive gaussians,   429 cartesian basis functions
    55 alpha electrons       55 beta electrons
       nuclear repulsion energy       944.1972738621 Hartrees.
 NAtoms=   27 NActive=   27 NUniq=   27 SFac= 1.00D+00 NAtFMM=   60 NAOKFM=F Big=F
 Integral buffers will be    131072 words long.
 Raffenetti 2 integral format.
 Two-electron integral symmetry is turned on.
 Nuclear repulsion after empirical dispersion term =      944.1821318563 Hartrees.
 Force inversion solution in PCM.
 ------------------------------------------------------------------------------
 Polarizable Continuum Model (PCM)
 =================================
 Model                : PCM (using non-symmetric T matrix).
 Atomic radii         : UFF (Universal Force Field).
 Polarization charges : Total charges.
 Charge compensation  : None.
 Solution method      : Matrix inversion.
 Cavity type          : Scaled VdW (van der Waals Surface) (Alpha=1.100).
 Cavity algorithm     : GePol (No added spheres)
                        Default sphere list used, NSphG=   27.
                        Lebedev-Laikov grids with approx.  5.0 points / Ang**2.
                        Smoothing algorithm: Karplus/York (Gamma=1.0000).
                        Polarization charges: spherical gaussians, with
                                              point-specific exponents (IZeta= 3).
                        Self-potential: point-specific (ISelfS= 7).
                        Self-field    : sphere-specific E.n sum rule (ISelfD= 2).
 1st derivatives      : Analytical E(r).r(x)/FMM algorithm (CHGder, D1EAlg=3).
                        Cavity 1st derivative terms included.
 2nd derivatives      : Analytical E(r).r(xy)/FMM algorithm (CHGder, D2EAlg=3).
                        Cavity 2nd derivative terms included.
 Solvent              : Dichloromethane, Eps=   8.930000 Eps(inf)=   2.028346
 ------------------------------------------------------------------------------
 One-electron integrals computed using PRISM.
 NBasis=   414 RedAO= T EigKep=  1.73D-06  NBF=   414
 NBsUse=   411 1.00D-06 EigRej=  7.34D-07 NBFU=   411
 Initial guess from the checkpoint file:  "4_opt_DCM.chk"
 B after Tr=     0.000000    0.000000    0.000000
         Rot=    1.000000    0.000000    0.000000    0.000000 Ang=   0.00 deg.
 Requested convergence on RMS density matrix=1.00D-08 within 128 cycles.
 Requested convergence on MAX density matrix=1.00D-06.
 Requested convergence on             energy=1.00D-06.
 No special actions if energy rises.
 Inv3:  Mode=1 IEnd=    14283372.
 Iteration    1 A*A^-1 deviation from unit magnitude is 4.55D-15 for   2169.
 Iteration    1 A*A^-1 deviation from orthogonality  is 2.80D-15 for   2169   1995.
 Iteration    1 A^-1*A deviation from unit magnitude is 4.66D-15 for   2157.
 Iteration    1 A^-1*A deviation from orthogonality  is 2.85D-12 for   1985   1979.
 Error on total polarization charges =  0.01283
 SCF Done:  E(RwB97XD) =  -731.403739776     A.U. after   15 cycles
            NFock= 15  Conv=0.48D-08     -V/T= 2.0037
 DoSCS=F DFT=T ScalE2(SS,OS)=  1.000000  1.000000
 Range of M.O.s used for correlation:     1   411
 NBasis=   414 NAE=    55 NBE=    55 NFC=     0 NFV=     0
 NROrb=    411 NOA=    55 NOB=    55 NVA=   356 NVB=   356

 **** Warning!!: The largest alpha MO coefficient is  0.14469060D+03

 Symmetrizing basis deriv contribution to polar:
 IMax=3 JMax=2 DiffMx= 0.00D+00
 G2DrvN: will do    28 centers at a time, making    1 passes.
 Calling FoFCou, ICntrl=  3107 FMM=F I1Cent=   0 AccDes= 0.00D+00.
 NEqPCM:  Using equilibrium solvation (IEInf=0, Eps=   8.9300, EpsInf=   2.0283)
 G2PCM: DoFxE=T DoFxN=T DoGrad=T DoDP/DQ/DG/TGxP=FFFF NFrqRd=   0 IEInf=0 SqF1=F DoCFld=F IF1Alg=4.
 End of G2Drv F.D. properties file   721 does not exist.
 End of G2Drv F.D. properties file   722 does not exist.
 End of G2Drv F.D. properties file   788 does not exist.
          IDoAtm=111111111111111111111111111
 NEqPCM:  Using equilibrium solvation (IEInf=0, Eps=   8.9300, EpsInf=   2.0283)
          Differentiating once with respect to nuclear coordinates.
          There are    84 degrees of freedom in the 1st order CPHF.  IDoFFX=6 NUNeed=     0.
     78 vectors produced by pass  0 Test12= 2.33D-14 1.19D-09 XBig12= 2.34D-01 8.58D-02.
 AX will form    78 AO Fock derivatives at one time.
     78 vectors produced by pass  1 Test12= 2.33D-14 1.19D-09 XBig12= 1.52D-02 2.98D-02.
     78 vectors produced by pass  2 Test12= 2.33D-14 1.19D-09 XBig12= 5.36D-04 2.61D-03.
     78 vectors produced by pass  3 Test12= 2.33D-14 1.19D-09 XBig12= 6.06D-06 3.14D-04.
     78 vectors produced by pass  4 Test12= 2.33D-14 1.19D-09 XBig12= 4.65D-08 2.56D-05.
     78 vectors produced by pass  5 Test12= 2.33D-14 1.19D-09 XBig12= 3.53D-10 2.02D-06.
     78 vectors produced by pass  6 Test12= 2.33D-14 1.19D-09 XBig12= 3.73D-12 1.75D-07.
     72 vectors produced by pass  7 Test12= 2.33D-14 1.19D-09 XBig12= 3.41D-13 4.85D-08.
     49 vectors produced by pass  8 Test12= 2.33D-14 1.19D-09 XBig12= 8.89D-15 7.64D-09.
     29 vectors produced by pass  9 Test12= 2.33D-14 1.19D-09 XBig12= 2.63D-15 4.73D-09.
     29 vectors produced by pass 10 Test12= 2.33D-14 1.19D-09 XBig12= 1.58D-14 1.20D-08.
     29 vectors produced by pass 11 Test12= 2.33D-14 1.19D-09 XBig12= 1.29D-14 1.02D-08.
     28 vectors produced by pass 12 Test12= 2.33D-14 1.19D-09 XBig12= 9.46D-15 6.79D-09.
     17 vectors produced by pass 13 Test12= 2.33D-14 1.19D-09 XBig12= 3.34D-15 5.33D-09.
     17 vectors produced by pass 14 Test12= 2.33D-14 1.19D-09 XBig12= 5.43D-15 4.82D-09.
     16 vectors produced by pass 15 Test12= 2.33D-14 1.19D-09 XBig12= 2.74D-15 3.26D-09.
     11 vectors produced by pass 16 Test12= 2.33D-14 1.19D-09 XBig12= 2.15D-15 3.31D-09.
     11 vectors produced by pass 17 Test12= 2.33D-14 1.19D-09 XBig12= 4.99D-15 4.64D-09.
     10 vectors produced by pass 18 Test12= 2.33D-14 1.19D-09 XBig12= 2.18D-15 2.96D-09.
      5 vectors produced by pass 19 Test12= 2.33D-14 1.19D-09 XBig12= 1.15D-15 2.03D-09.
      4 vectors produced by pass 20 Test12= 2.33D-14 1.19D-09 XBig12= 1.51D-15 2.66D-09.
      4 vectors produced by pass 21 Test12= 2.33D-14 1.19D-09 XBig12= 8.04D-16 1.86D-09.
      4 vectors produced by pass 22 Test12= 2.33D-14 1.19D-09 XBig12= 1.76D-15 2.69D-09.
      4 vectors produced by pass 23 Test12= 2.33D-14 1.19D-09 XBig12= 3.89D-15 3.78D-09.
      4 vectors produced by pass 24 Test12= 2.33D-14 1.19D-09 XBig12= 1.63D-15 2.93D-09.
      4 vectors produced by pass 25 Test12= 2.33D-14 1.19D-09 XBig12= 3.54D-15 4.24D-09.
      4 vectors produced by pass 26 Test12= 2.33D-14 1.19D-09 XBig12= 1.54D-15 2.43D-09.
      3 vectors produced by pass 27 Test12= 2.33D-14 1.19D-09 XBig12= 1.06D-15 2.18D-09.
      3 vectors produced by pass 28 Test12= 2.33D-14 1.19D-09 XBig12= 8.43D-16 2.02D-09.
      1 vectors produced by pass 29 Test12= 2.33D-14 1.19D-09 XBig12= 4.78D-16 1.66D-09.
 InvSVY:  IOpt=1 It=  1 EMax= 9.44D-16
 Solved reduced A of dimension   904 with    84 vectors.
 End of Minotr F.D. properties file   721 does not exist.
 End of Minotr F.D. properties file   722 does not exist.
 End of Minotr F.D. properties file   788 does not exist.

 **********************************************************************

            Population analysis using the SCF density.

 **********************************************************************

 Orbital symmetries:
       Occupied  (A) (A) (A) (A) (A) (A) (A) (A) (A) (A) (A) (A)
                 (A) (A) (A) (A) (A) (A) (A) (A) (A) (A) (A) (A)
                 (A) (A) (A) (A) (A) (A) (A) (A) (A) (A) (A) (A)
                 (A) (A) (A) (A) (A) (A) (A) (A) (A) (A) (A) (A)
                 (A) (A) (A) (A) (A) (A) (A)
       Virtual   (A) (A) (A) (A) (A) (A) (A) (A) (A) (A) (A) (A)
                 (A) (A) (A) (A) (A) (A) (A) (A) (A) (A) (A) (A)
                 (A) (A) (A) (A) (A) (A) (A) (A) (A) (A) (A) (A)
                 (A) (A) (A) (A) (A) (A) (A) (A) (A) (A) (A) (A)
                 (A) (A) (A) (A) (A) (A) (A) (A) (A) (A) (A) (A)
                 (A) (A) (A) (A) (A) (A) (A) (A) (A) (A) (A) (A)
                 (A) (A) (A) (A) (A) (A) (A) (A) (A) (A) (A) (A)
                 (A) (A) (A) (A) (A) (A) (A) (A) (A) (A) (A) (A)
                 (A) (A) (A) (A) (A) (A) (A) (A) (A) (A) (A) (A)
                 (A) (A) (A) (A) (A) (A) (A) (A) (A) (A) (A) (A)
                 (A) (A) (A) (A) (A) (A) (A) (A) (A) (A) (A) (A)
                 (A) (A) (A) (A) (A) (A) (A) (A) (A) (A) (A) (A)
                 (A) (A) (A) (A) (A) (A) (A) (A) (A) (A) (A) (A)
                 (A) (A) (A) (A) (A) (A) (A) (A) (A) (A) (A) (A)
                 (A) (A) (A) (A) (A) (A) (A) (A) (A) (A) (A) (A)
                 (A) (A) (A) (A) (A) (A) (A) (A) (A) (A) (A) (A)
                 (A) (A) (A) (A) (A) (A) (A) (A) (A) (A) (A) (A)
                 (A) (A) (A) (A) (A) (A) (A) (A) (A) (A) (A) (A)
                 (A) (A) (A) (A) (A) (A) (A) (A) (A) (A) (A) (A)
                 (A) (A) (A) (A) (A) (A) (A) (A) (A) (A) (A) (A)
                 (A) (A) (A) (A) (A) (A) (A) (A) (A) (A) (A) (A)
                 (A) (A) (A) (A) (A) (A) (A) (A) (A) (A) (A) (A)
                 (A) (A) (A) (A) (A) (A) (A) (A) (A) (A) (A) (A)
                 (A) (A) (A) (A) (A) (A) (A) (A) (A) (A) (A) (A)
                 (A) (A) (A) (A) (A) (A) (A) (A) (A) (A) (A) (A)
                 (A) (A) (A) (A) (A) (A) (A) (A) (A) (A) (A) (A)
                 (A) (A) (A) (A) (A) (A) (A) (A) (A) (A) (A) (A)
                 (A) (A) (A) (A) (A) (A) (A) (A) (A) (A) (A) (A)
                 (A) (A) (A) (A) (A) (A) (A) (A) (A) (A) (A) (A)
                 (A) (A) (A) (A) (A) (A) (A) (A)
 The electronic state is 1-A.
 Alpha  occ. eigenvalues --  -24.82443 -19.27041 -19.23370 -14.48733 -10.38382
 Alpha  occ. eigenvalues --  -10.37525 -10.36623 -10.34674 -10.32329 -10.32187
 Alpha  occ. eigenvalues --  -10.31172 -10.30966 -10.30960 -10.29916 -10.27484
 Alpha  occ. eigenvalues --   -1.33858  -1.17962  -1.14073  -1.08182  -0.97857
 Alpha  occ. eigenvalues --   -0.89819  -0.87790  -0.85396  -0.83990  -0.80059
 Alpha  occ. eigenvalues --   -0.75998  -0.72034  -0.70030  -0.65384  -0.64664
 Alpha  occ. eigenvalues --   -0.63134  -0.60896  -0.60601  -0.57915  -0.57330
 Alpha  occ. eigenvalues --   -0.56993  -0.55122  -0.53648  -0.52866  -0.52744
 Alpha  occ. eigenvalues --   -0.52089  -0.50773  -0.50160  -0.49595  -0.48417
 Alpha  occ. eigenvalues --   -0.48094  -0.47087  -0.46388  -0.44672  -0.43187
 Alpha  occ. eigenvalues --   -0.41356  -0.35475  -0.35165  -0.30930  -0.29190
 Alpha virt. eigenvalues --   -0.00897   0.03939   0.04756   0.04829   0.05353
 Alpha virt. eigenvalues --    0.06127   0.06594   0.06772   0.07945   0.07997
 Alpha virt. eigenvalues --    0.08440   0.08943   0.09308   0.10273   0.11235
 Alpha virt. eigenvalues --    0.11332   0.11744   0.12752   0.13721   0.13976
 Alpha virt. eigenvalues --    0.14298   0.14987   0.15204   0.15728   0.16143
 Alpha virt. eigenvalues --    0.16230   0.16468   0.16852   0.17142   0.17360
 Alpha virt. eigenvalues --    0.18560   0.18793   0.18870   0.19147   0.19651
 Alpha virt. eigenvalues --    0.19755   0.20309   0.20364   0.20749   0.21543
 Alpha virt. eigenvalues --    0.21730   0.21791   0.22038   0.22505   0.22778
 Alpha virt. eigenvalues --    0.23947   0.24529   0.24896   0.25391   0.25567
 Alpha virt. eigenvalues --    0.26093   0.26915   0.26949   0.27413   0.27707
 Alpha virt. eigenvalues --    0.27954   0.28513   0.29059   0.29438   0.30085
 Alpha virt. eigenvalues --    0.30510   0.31232   0.32257   0.32859   0.33131
 Alpha virt. eigenvalues --    0.33471   0.34613   0.35084   0.35237   0.35569
 Alpha virt. eigenvalues --    0.35794   0.37004   0.37447   0.37678   0.37835
 Alpha virt. eigenvalues --    0.38429   0.38762   0.39153   0.39467   0.39493
 Alpha virt. eigenvalues --    0.41308   0.41608   0.41748   0.42982   0.43488
 Alpha virt. eigenvalues --    0.43893   0.44501   0.45152   0.46393   0.47178
 Alpha virt. eigenvalues --    0.47765   0.48845   0.50472   0.50637   0.52526
 Alpha virt. eigenvalues --    0.53005   0.53453   0.55315   0.56553   0.58158
 Alpha virt. eigenvalues --    0.58786   0.60322   0.60657   0.61469   0.62203
 Alpha virt. eigenvalues --    0.62917   0.63392   0.65094   0.65232   0.66176
 Alpha virt. eigenvalues --    0.66659   0.67943   0.68586   0.69392   0.69673
 Alpha virt. eigenvalues --    0.70268   0.70982   0.71614   0.72378   0.72862
 Alpha virt. eigenvalues --    0.73378   0.73928   0.74429   0.75682   0.77103
 Alpha virt. eigenvalues --    0.77313   0.78345   0.78770   0.80424   0.81148
 Alpha virt. eigenvalues --    0.81933   0.83994   0.85387   0.86410   0.87480
 Alpha virt. eigenvalues --    0.88450   0.88820   0.91963   0.93471   0.94350
 Alpha virt. eigenvalues --    0.94416   0.95204   0.97779   0.98357   0.98702
 Alpha virt. eigenvalues --    0.99236   1.01007   1.01627   1.03517   1.04603
 Alpha virt. eigenvalues --    1.04916   1.05700   1.06913   1.07401   1.10551
 Alpha virt. eigenvalues --    1.11516   1.12385   1.13538   1.14831   1.15633
 Alpha virt. eigenvalues --    1.17065   1.17432   1.18288   1.19139   1.19485
 Alpha virt. eigenvalues --    1.21172   1.23607   1.24095   1.27458   1.30798
 Alpha virt. eigenvalues --    1.31687   1.32260   1.33103   1.35988   1.37505
 Alpha virt. eigenvalues --    1.38551   1.43530   1.45489   1.46450   1.50939
 Alpha virt. eigenvalues --    1.50988   1.51518   1.52451   1.53312   1.53820
 Alpha virt. eigenvalues --    1.55286   1.58457   1.58597   1.59521   1.60219
 Alpha virt. eigenvalues --    1.61324   1.63661   1.64237   1.64745   1.64935
 Alpha virt. eigenvalues --    1.66758   1.68372   1.68484   1.69014   1.69815
 Alpha virt. eigenvalues --    1.71112   1.73420   1.73994   1.75725   1.77255
 Alpha virt. eigenvalues --    1.77915   1.79033   1.81163   1.81740   1.82551
 Alpha virt. eigenvalues --    1.83069   1.85320   1.86766   1.86976   1.90900
 Alpha virt. eigenvalues --    1.92368   1.94808   1.95747   1.96011   1.98273
 Alpha virt. eigenvalues --    1.99500   2.02611   2.03328   2.03887   2.04556
 Alpha virt. eigenvalues --    2.06529   2.07744   2.07988   2.08711   2.12208
 Alpha virt. eigenvalues --    2.12934   2.14136   2.15230   2.18149   2.18874
 Alpha virt. eigenvalues --    2.20401   2.21645   2.24746   2.25576   2.26349
 Alpha virt. eigenvalues --    2.28385   2.30528   2.32237   2.35659   2.40561
 Alpha virt. eigenvalues --    2.40644   2.43063   2.47087   2.48094   2.50827
 Alpha virt. eigenvalues --    2.52169   2.53824   2.56182   2.56496   2.58221
 Alpha virt. eigenvalues --    2.60501   2.63499   2.65458   2.67358   2.69527
 Alpha virt. eigenvalues --    2.72039   2.72176   2.72771   2.73313   2.76287
 Alpha virt. eigenvalues --    2.77831   2.78664   2.79025   2.81212   2.82455
 Alpha virt. eigenvalues --    2.83306   2.84097   2.84816   2.86241   2.88360
 Alpha virt. eigenvalues --    2.88786   2.90304   2.93157   2.94491   2.95106
 Alpha virt. eigenvalues --    2.96793   2.98710   3.02467   3.03239   3.08027
 Alpha virt. eigenvalues --    3.11529   3.14121   3.16486   3.17614   3.19760
 Alpha virt. eigenvalues --    3.20776   3.22935   3.23976   3.27526   3.29662
 Alpha virt. eigenvalues --    3.29972   3.32326   3.37858   3.42119   3.46164
 Alpha virt. eigenvalues --    3.50696   3.57197   3.60248   3.62100   3.66668
 Alpha virt. eigenvalues --    3.68835   3.72111   3.74737   3.79959   3.81582
 Alpha virt. eigenvalues --    3.82319   3.84680   3.86582   3.87341   3.88950
 Alpha virt. eigenvalues --    3.94275   3.95566   3.95778   4.02537   4.07180
 Alpha virt. eigenvalues --    4.09575   4.12822   4.17468   4.21538   4.27651
 Alpha virt. eigenvalues --    4.28972   4.39248   4.64121   4.94671   4.96466
 Alpha virt. eigenvalues --    4.99444   5.12500   5.17585   5.18501   5.42632
 Alpha virt. eigenvalues --    5.61009   5.89145   5.92941   6.43741   6.57885
 Alpha virt. eigenvalues --    6.87526  23.70065  23.94330  24.01551  24.03189
 Alpha virt. eigenvalues --   24.06196  24.07999  24.09206  24.14966  24.23472
 Alpha virt. eigenvalues --   24.29934  24.32054  35.70933  50.12609  50.19072
 Alpha virt. eigenvalues --   66.95261
          Condensed to atoms (all electrons):
               1          2          3          4          5          6
     1  C    5.264361   0.387408   0.416619  -0.069464   0.012826   0.240821
     2  H    0.387408   0.460428  -0.015624   0.001501  -0.005501  -0.045096
     3  H    0.416619  -0.015624   0.513276  -0.008260  -0.000039  -0.049221
     4  C   -0.069464   0.001501  -0.008260   5.183787   0.399055   0.247802
     5  H    0.012826  -0.005501  -0.000039   0.399055   0.539632  -0.044880
     6  N    0.240821  -0.045096  -0.049221   0.247802  -0.044880   6.794111
     7  H    0.414529  -0.021422  -0.051282   0.009422   0.001888  -0.031065
     8  H   -0.001974   0.003598  -0.000736   0.411507  -0.030424  -0.094035
     9  H   -0.013796  -0.003772   0.003239   0.409897  -0.058830  -0.041677
    10  C    0.155800   0.016316  -0.011311  -0.073879  -0.033128   0.215360
    11  H    0.007847  -0.001311  -0.001954  -0.030940   0.004979  -0.057734
    12  C    0.144506   0.032084  -0.004183  -0.044947   0.009708  -0.234316
    13  C   -0.281770  -0.016040   0.016186  -0.090574   0.002379   0.015074
    14  H    0.009025   0.001283  -0.014193  -0.000477   0.001071  -0.004578
    15  O   -0.001035   0.000070   0.000204  -0.000777  -0.000103   0.002965
    16  C   -0.192048  -0.004344  -0.000787   0.002250  -0.000970  -0.007043
    17  C   -0.023708   0.000644  -0.001382  -0.003684  -0.000365   0.005885
    18  C   -0.004970  -0.004652   0.007125  -0.012077   0.000559  -0.027600
    19  O   -0.000102  -0.000006   0.000047   0.000271   0.000007  -0.000158
    20  C    0.005862   0.000305  -0.000732  -0.000384   0.000014  -0.000257
    21  C   -0.009225  -0.000574   0.000538   0.001344  -0.000054   0.004184
    22  H    0.004449   0.000109   0.001831  -0.002494  -0.000044  -0.014067
    23  H   -0.000942  -0.000083   0.000083  -0.000100   0.000004  -0.000229
    24  H    0.000091   0.000004  -0.000010   0.000008   0.000000  -0.000031
    25  C   -0.010106  -0.000405  -0.000137  -0.000141  -0.000013   0.003216
    26  F   -0.000190  -0.000011  -0.000061   0.000000   0.000000   0.000006
    27  H   -0.000203  -0.000009   0.000009   0.000005   0.000000   0.000028
               7          8          9         10         11         12
     1  C    0.414529  -0.001974  -0.013796   0.155800   0.007847   0.144506
     2  H   -0.021422   0.003598  -0.003772   0.016316  -0.001311   0.032084
     3  H   -0.051282  -0.000736   0.003239  -0.011311  -0.001954  -0.004183
     4  C    0.009422   0.411507   0.409897  -0.073879  -0.030940  -0.044947
     5  H    0.001888  -0.030424  -0.058830  -0.033128   0.004979   0.009708
     6  N   -0.031065  -0.094035  -0.041677   0.215360  -0.057734  -0.234316
     7  H    0.529237  -0.003180  -0.001407   0.023513   0.002909  -0.035913
     8  H   -0.003180   0.532120  -0.024044   0.058618  -0.011082   0.002088
     9  H   -0.001407  -0.024044   0.538746  -0.008848   0.001064   0.009054
    10  C    0.023513   0.058618  -0.008848  11.085340   0.357959   2.988544
    11  H    0.002909  -0.011082   0.001064   0.357959   0.461178   0.055130
    12  C   -0.035913   0.002088   0.009054   2.988544   0.055130  11.800961
    13  C   -0.025461   0.002436   0.001557  -3.526664   0.054765   0.968869
    14  H    0.006485  -0.001665   0.000064   0.187242  -0.002618   0.554854
    15  O    0.000685   0.000321   0.000081  -0.004513   0.011943  -0.223991
    16  C   -0.008009   0.005531   0.000960  -2.597079  -0.072055  -4.016100
    17  C   -0.001881   0.003716  -0.000240  -1.502048  -0.069991  -3.157127
    18  C    0.001362  -0.004241   0.000518  -1.452230   0.053035  -1.380614
    19  O    0.000032  -0.000095   0.000002   0.004291   0.000200  -0.044165
    20  C   -0.000694   0.000085  -0.000013  -0.121781  -0.002657   0.121353
    21  C    0.002292   0.000046  -0.000016   0.177975  -0.000577  -0.332996
    22  H   -0.002093   0.000091   0.000009  -0.157964   0.003974  -0.087637
    23  H   -0.000013   0.000005   0.000034  -0.016528   0.000985   0.004705
    24  H   -0.000014   0.000002   0.000000   0.001173  -0.000101   0.008989
    25  C   -0.000098   0.000087   0.000007  -0.188482  -0.004276  -0.702946
    26  F   -0.000085   0.000000   0.000000  -0.001203  -0.000054   0.003917
    27  H    0.000009   0.000001   0.000000  -0.002357  -0.000061  -0.016234
              13         14         15         16         17         18
     1  C   -0.281770   0.009025  -0.001035  -0.192048  -0.023708  -0.004970
     2  H   -0.016040   0.001283   0.000070  -0.004344   0.000644  -0.004652
     3  H    0.016186  -0.014193   0.000204  -0.000787  -0.001382   0.007125
     4  C   -0.090574  -0.000477  -0.000777   0.002250  -0.003684  -0.012077
     5  H    0.002379   0.001071  -0.000103  -0.000970  -0.000365   0.000559
     6  N    0.015074  -0.004578   0.002965  -0.007043   0.005885  -0.027600
     7  H   -0.025461   0.006485   0.000685  -0.008009  -0.001881   0.001362
     8  H    0.002436  -0.001665   0.000321   0.005531   0.003716  -0.004241
     9  H    0.001557   0.000064   0.000081   0.000960  -0.000240   0.000518
    10  C   -3.526664   0.187242  -0.004513  -2.597079  -1.502048  -1.452230
    11  H    0.054765  -0.002618   0.011943  -0.072055  -0.069991   0.053035
    12  C    0.968869   0.554854  -0.223991  -4.016100  -3.157127  -1.380614
    13  C   12.754400  -0.053619   0.890711   1.464144  -3.847080  -0.037080
    14  H   -0.053619   0.797830  -0.020523   0.107403   0.018304  -0.679577
    15  O    0.890711  -0.020523   8.218425  -0.151029  -0.198848  -0.143237
    16  C    1.464144   0.107403  -0.151029  17.939940   1.350748  -6.413641
    17  C   -3.847080   0.018304  -0.198848   1.350748  15.543118  -4.099767
    18  C   -0.037080  -0.679577  -0.143237  -6.413641  -4.099767  21.286535
    19  O   -0.072814  -0.002092  -0.004898   0.089133   0.330829   0.006883
    20  C   -0.523978  -0.009321  -0.036865  -2.550339   0.691999   1.033581
    21  C   -0.307414  -0.026695   0.007498  -1.352161   0.391880   0.899129
    22  H   -0.033067  -0.168809   0.006576  -0.513415   0.007446   1.546002
    23  H    0.024704  -0.004464   0.070649  -0.148448  -0.005737   0.067966
    24  H    0.015999  -0.000725   0.001387  -0.094288  -0.133041   0.055965
    25  C   -0.970539   0.137183  -0.037882   1.116899   0.502271  -2.676680
    26  F    0.011195   0.017602  -0.000001   0.117023   0.011771  -0.166584
    27  H   -0.015550   0.001884  -0.000343   0.109304   0.057103  -0.164373
              19         20         21         22         23         24
     1  C   -0.000102   0.005862  -0.009225   0.004449  -0.000942   0.000091
     2  H   -0.000006   0.000305  -0.000574   0.000109  -0.000083   0.000004
     3  H    0.000047  -0.000732   0.000538   0.001831   0.000083  -0.000010
     4  C    0.000271  -0.000384   0.001344  -0.002494  -0.000100   0.000008
     5  H    0.000007   0.000014  -0.000054  -0.000044   0.000004   0.000000
     6  N   -0.000158  -0.000257   0.004184  -0.014067  -0.000229  -0.000031
     7  H    0.000032  -0.000694   0.002292  -0.002093  -0.000013  -0.000014
     8  H   -0.000095   0.000085   0.000046   0.000091   0.000005   0.000002
     9  H    0.000002  -0.000013  -0.000016   0.000009   0.000034   0.000000
    10  C    0.004291  -0.121781   0.177975  -0.157964  -0.016528   0.001173
    11  H    0.000200  -0.002657  -0.000577   0.003974   0.000985  -0.000101
    12  C   -0.044165   0.121353  -0.332996  -0.087637   0.004705   0.008989
    13  C   -0.072814  -0.523978  -0.307414  -0.033067   0.024704   0.015999
    14  H   -0.002092  -0.009321  -0.026695  -0.168809  -0.004464  -0.000725
    15  O   -0.004898  -0.036865   0.007498   0.006576   0.070649   0.001387
    16  C    0.089133  -2.550339  -1.352161  -0.513415  -0.148448  -0.094288
    17  C    0.330829   0.691999   0.391880   0.007446  -0.005737  -0.133041
    18  C    0.006883   1.033581   0.899129   1.546002   0.067966   0.055965
    19  O    8.158789  -0.379264   0.006626  -0.000898   0.254916  -0.023406
    20  C   -0.379264   7.767440  -0.146364   0.081694   0.069664   0.530017
    21  C    0.006626  -0.146364   8.858566  -0.079773   0.010614   0.040268
    22  H   -0.000898   0.081694  -0.079773   0.675985   0.004954   0.003954
    23  H    0.254916   0.069664   0.010614   0.004954   0.301203   0.001842
    24  H   -0.023406   0.530017   0.040268   0.003954   0.001842   0.440498
    25  C    0.013581  -0.020370  -1.735770  -0.397968  -0.005300  -0.094867
    26  F    0.000144   0.003657   0.359892  -0.076463   0.000147   0.001109
    27  H    0.001131  -0.050096  -0.211091  -0.010294  -0.000434  -0.012272
              25         26         27
     1  C   -0.010106  -0.000190  -0.000203
     2  H   -0.000405  -0.000011  -0.000009
     3  H   -0.000137  -0.000061   0.000009
     4  C   -0.000141   0.000000   0.000005
     5  H   -0.000013   0.000000   0.000000
     6  N    0.003216   0.000006   0.000028
     7  H   -0.000098  -0.000085   0.000009
     8  H    0.000087   0.000000   0.000001
     9  H    0.000007   0.000000   0.000000
    10  C   -0.188482  -0.001203  -0.002357
    11  H   -0.004276  -0.000054  -0.000061
    12  C   -0.702946   0.003917  -0.016234
    13  C   -0.970539   0.011195  -0.015550
    14  H    0.137183   0.017602   0.001884
    15  O   -0.037882  -0.000001  -0.000343
    16  C    1.116899   0.117023   0.109304
    17  C    0.502271   0.011771   0.057103
    18  C   -2.676680  -0.166584  -0.164373
    19  O    0.013581   0.000144   0.001131
    20  C   -0.020370   0.003657  -0.050096
    21  C   -1.735770   0.359892  -0.211091
    22  H   -0.397968  -0.076463  -0.010294
    23  H   -0.005300   0.000147  -0.000434
    24  H   -0.094867   0.001109  -0.012272
    25  C   10.586294  -0.232206   0.620117
    26  F   -0.232206   9.146716  -0.021745
    27  H    0.620117  -0.021745   0.440049
 Mulliken charges:
               1
     1  C   -0.454612
     2  H    0.215101
     3  H    0.200754
     4  C   -0.328652
     5  H    0.202226
     6  N    0.122536
     7  H    0.190253
     8  H    0.151224
     9  H    0.187410
    10  C    0.425887
    11  H    0.239441
    12  C   -0.423592
    13  C   -0.420766
    14  H    0.149127
    15  O   -0.387470
    16  C    1.818421
    17  C    0.129185
    18  C   -1.691336
    19  O   -0.338985
    20  C   -0.462554
    21  C   -0.558144
    22  H    0.207912
    23  H    0.369803
    24  H    0.257451
    25  C    0.098532
    26  F   -0.174576
    27  H    0.275424
 Sum of Mulliken charges =   0.00000
 Mulliken charges with hydrogens summed into heavy atoms:
               1
     1  C    0.151496
     4  C    0.212208
     6  N    0.122536
    10  C    0.665328
    12  C   -0.274465
    13  C   -0.420766
    15  O   -0.387470
    16  C    1.818421
    17  C    0.129185
    18  C   -1.483424
    19  O    0.030818
    20  C   -0.205103
    21  C   -0.558144
    25  C    0.373956
    26  F   -0.174576
 APT charges:
               1
     1  C   -1.107093
     2  H    1.023327
     3  H    0.165621
     4  C   -1.890024
     5  H    0.660155
     6  N    0.502400
     7  H    0.102952
     8  H    0.336478
     9  H    0.805343
    10  C    0.691941
    11  H    0.428262
    12  C   -0.955005
    13  C   -0.497980
    14  H    0.313672
    15  O   -0.329227
    16  C   -1.012438
    17  C   -0.274883
    18  C   -0.672520
    19  O   -0.204579
    20  C   -0.376510
    21  C    0.154535
    22  H    0.329918
    23  H    0.264212
    24  H    0.889076
    25  C   -0.273309
    26  F   -0.088777
    27  H    1.014452
 Sum of APT charges =   0.00000
 APT charges with hydrogens summed into heavy atoms:
               1
     1  C    0.184808
     4  C   -0.088048
     6  N    0.502400
    10  C    1.120203
    12  C   -0.641334
    13  C   -0.497980
    15  O   -0.329227
    16  C   -1.012438
    17  C   -0.274883
    18  C   -0.342602
    19  O    0.059632
    20  C    0.512566
    21  C    0.154535
    25  C    0.741144
    26  F   -0.088777
 Electronic spatial extent (au):  <R**2>=           4473.4646
 Charge=              0.0000 electrons
 Dipole moment (field-independent basis, Debye):
    X=              7.3086    Y=              3.5078    Z=             -0.1756  Tot=              8.1087
 Quadrupole moment (field-independent basis, Debye-Ang):
   XX=            -52.7007   YY=            -97.7877   ZZ=            -90.9359
   XY=              5.3682   XZ=             -0.5709   YZ=              0.3077
 Traceless Quadrupole moment (field-independent basis, Debye-Ang):
   XX=             27.7740   YY=            -17.3129   ZZ=            -10.4611
   XY=              5.3682   XZ=             -0.5709   YZ=              0.3077
 Octapole moment (field-independent basis, Debye-Ang**2):
  XXX=            116.8933  YYY=             21.6819  ZZZ=             -0.6855  XYY=             44.4789
  XXY=              7.4081  XXZ=             -2.9351  XZZ=              3.9014  YZZ=              3.4339
  YYZ=              0.3466  XYZ=              0.8009
 Hexadecapole moment (field-independent basis, Debye-Ang**3):
 XXXX=          -3462.4021 YYYY=          -1245.3048 ZZZZ=           -110.5863 XXXY=             25.7830
 XXXZ=             -2.7886 YYYX=              3.6770 YYYZ=              0.9379 ZZZX=             -3.5857
 ZZZY=             -0.7376 XXYY=           -964.8228 XXZZ=           -796.4780 YYZZ=           -210.4501
 XXYZ=              4.5239 YYXZ=              1.4068 ZZXY=            -11.8690
 N-N= 9.441821318563D+02 E-N=-3.599648264889D+03  KE= 7.287001714359D+02
  Exact polarizability:   0.000   0.000   0.000   0.000   0.000   0.000
 Approx polarizability: 212.652   6.040 179.008   0.310  -0.242 100.834
 D2PCM: PCM CHGder 2nd derivatives, FixD1E=F FixD2E=F DoIter=F DoCFld=F I1PDM=0
 Calling FoFJK, ICntrl=    100147 FMM=F ISym2X=0 I1Cent= 0 IOpClX= 0 NMat=1 NMatS=1 NMatT=0.
 ***** Axes restored to original set *****
 -------------------------------------------------------------------
 Center     Atomic                   Forces (Hartrees/Bohr)
 Number     Number              X              Y              Z
 -------------------------------------------------------------------
      1        6           0.000073286    0.002809700   -0.000242186
      2        1           0.000447230   -0.000420381    0.000104077
      3        1          -0.000309486   -0.000478811   -0.000350945
      4        6          -0.002605326   -0.002044173   -0.000200858
      5        1           0.000850660    0.000480703   -0.000613456
      6        7           0.008397936   -0.004627246    0.001029806
      7        1          -0.000270851   -0.000106997    0.000243564
      8        1           0.000055878    0.000171493    0.000061072
      9        1           0.000737149    0.000281401    0.000359999
     10        6          -0.012931977    0.001019462   -0.000326998
     11        1          -0.001343517    0.000453536    0.000138541
     12        6           0.011228986   -0.000233651   -0.000141262
     13        6          -0.007610276    0.011702979   -0.000038821
     14        1          -0.000042095   -0.000075117   -0.000000611
     15        8           0.001847098   -0.009154178   -0.000094695
     16        6           0.001828921   -0.000874025    0.000047616
     17        6           0.001721214    0.006623367    0.000029003
     18        6          -0.000998636    0.000494316    0.000000378
     19        8          -0.000130316   -0.005014622   -0.000029860
     20        6          -0.001277748   -0.001517779   -0.000026868
     21        6           0.000086860   -0.003837824   -0.000006387
     22        1          -0.000393357   -0.000168559   -0.000001295
     23        1          -0.001595371    0.000764737    0.000018397
     24        1           0.000667101    0.000412917    0.000012984
     25        6           0.000903172    0.001897561    0.000016447
     26        9           0.000432245    0.001850289    0.000006690
     27        1           0.000231220   -0.000409099    0.000005669
 -------------------------------------------------------------------
 Cartesian Forces:  Max     0.012931977 RMS     0.003146512
 FormGI is forming the generalized inverse of G from B-inverse, IUseBI=4.
 GSVD:  received Info=                   1 from GESDD.

 GradGradGradGradGradGradGradGradGradGradGradGradGradGradGradGradGradGrad
 Berny optimization.
 Internal  Forces:  Max     0.008717461 RMS     0.001653248
 Search for a local minimum.
 Step number   1 out of a maximum of  134
 All quantities printed in internal units (Hartrees-Bohrs-Radians)
 Mixed Optimization -- RFO/linear search
 Second derivative matrix not updated -- analytic derivatives used.
 ITU=  0
     Eigenvalues ---   -0.00004   0.00066   0.00200   0.00583   0.00594
     Eigenvalues ---    0.01143   0.01449   0.01589   0.01819   0.01906
     Eigenvalues ---    0.01958   0.02058   0.02078   0.02659   0.02786
     Eigenvalues ---    0.02951   0.03204   0.03406   0.04648   0.06050
     Eigenvalues ---    0.06102   0.06143   0.06218   0.06803   0.10545
     Eigenvalues ---    0.11169   0.11775   0.12147   0.12983   0.13097
     Eigenvalues ---    0.13950   0.17019   0.17420   0.17656   0.17849
     Eigenvalues ---    0.18075   0.18242   0.18464   0.19594   0.20311
     Eigenvalues ---    0.20560   0.21118   0.21592   0.22020   0.23081
     Eigenvalues ---    0.24772   0.28531   0.29907   0.31742   0.32929
     Eigenvalues ---    0.33118   0.33711   0.33862   0.35016   0.35142
     Eigenvalues ---    0.35774   0.35938   0.36591   0.36843   0.37394
     Eigenvalues ---    0.37701   0.38548   0.38935   0.39812   0.41145
     Eigenvalues ---    0.43146   0.46249   0.48729   0.49646   0.49761
     Eigenvalues ---    0.52237   0.56572   0.60426   0.71823   0.93047
 RFO step:  Lambda=-1.16402847D-03 EMin=-3.84543593D-05
 Linear search not attempted -- first point.
 Iteration  1 RMS(Cart)=  0.03959561 RMS(Int)=  0.00057335
 Iteration  2 RMS(Cart)=  0.00111207 RMS(Int)=  0.00009069
 Iteration  3 RMS(Cart)=  0.00000104 RMS(Int)=  0.00009069
 Iteration  4 RMS(Cart)=  0.00000000 RMS(Int)=  0.00009069
 Variable       Old X    -DE/DX   Delta X   Delta X   Delta X     New X
                                 (Linear)    (Quad)   (Total)
    R1        2.05926  -0.00058   0.00000  -0.00240  -0.00240   2.05686
    R2        2.07195  -0.00059   0.00000  -0.00357  -0.00357   2.06838
    R3        2.73728   0.00178   0.00000   0.00825   0.00825   2.74553
    R4        2.06715  -0.00037   0.00000  -0.00142  -0.00142   2.06574
    R5        2.07062  -0.00079   0.00000  -0.00400  -0.00400   2.06663
    R6        2.74070   0.00132   0.00000   0.00768   0.00768   2.74838
    R7        2.05924  -0.00016   0.00000  -0.00138  -0.00138   2.05786
    R8        2.06657  -0.00064   0.00000  -0.00186  -0.00186   2.06471
    R9        2.53453  -0.00837   0.00000  -0.02431  -0.02431   2.51021
   R10        2.05237  -0.00030   0.00000  -0.00079  -0.00079   2.05158
   R11        2.57410   0.00735   0.00000   0.02103   0.02103   2.59513
   R12        2.73643  -0.00509   0.00000  -0.03118  -0.03118   2.70525
   R13        2.03888  -0.00008   0.00000  -0.00058  -0.00058   2.03830
   R14        2.34971   0.00872   0.00000   0.01759   0.01759   2.36730
   R15        2.81403   0.00149   0.00000   0.01070   0.01070   2.82473
   R16        2.67102  -0.00134   0.00000  -0.00103  -0.00103   2.66999
   R17        2.65413  -0.00063   0.00000  -0.00149  -0.00149   2.65264
   R18        2.52292   0.00445   0.00000   0.01132   0.01132   2.53424
   R19        2.64797  -0.00041   0.00000  -0.00304  -0.00304   2.64493
   R20        2.59155   0.00093   0.00000   0.00219   0.00219   2.59374
   R21        2.04317   0.00016   0.00000   0.00022   0.00022   2.04338
   R22        1.86354   0.00147   0.00000   0.00902   0.00902   1.87256
   R23        2.04641   0.00020   0.00000   0.00043   0.00043   2.04684
   R24        2.60607   0.00055   0.00000   0.00316   0.00316   2.60923
   R25        2.62307  -0.00010   0.00000  -0.00264  -0.00264   2.62043
   R26        2.55475   0.00190   0.00000   0.00719   0.00719   2.56194
   R27        2.04713   0.00009   0.00000  -0.00016  -0.00016   2.04697
    A1        1.89735   0.00020   0.00000   0.00192   0.00190   1.89925
    A2        1.90901  -0.00033   0.00000  -0.00351  -0.00352   1.90549
    A3        1.89262   0.00011   0.00000   0.00328   0.00328   1.89590
    A4        1.94334  -0.00039   0.00000  -0.00729  -0.00730   1.93603
    A5        1.89454   0.00022   0.00000   0.00499   0.00499   1.89953
    A6        1.92604   0.00020   0.00000   0.00094   0.00094   1.92699
    A7        1.94243  -0.00111   0.00000  -0.01293  -0.01296   1.92947
    A8        1.89380   0.00051   0.00000   0.00646   0.00646   1.90026
    A9        1.89589   0.00055   0.00000   0.00385   0.00379   1.89968
   A10        1.91126   0.00033   0.00000   0.00126   0.00126   1.91252
   A11        1.92737  -0.00064   0.00000  -0.00460  -0.00463   1.92273
   A12        1.89207   0.00041   0.00000   0.00666   0.00666   1.89872
   A13        2.05929  -0.00018   0.00000  -0.00431  -0.00487   2.05442
   A14        2.09889   0.00051   0.00000   0.00744   0.00690   2.10579
   A15        2.11588  -0.00031   0.00000   0.00462   0.00407   2.11995
   A16        2.01746  -0.00084   0.00000  -0.00170  -0.00170   2.01576
   A17        2.21628  -0.00116   0.00000  -0.00585  -0.00585   2.21043
   A18        2.04942   0.00199   0.00000   0.00757   0.00757   2.05699
   A19        2.06200   0.00234   0.00000   0.01044   0.01044   2.07244
   A20        2.11391  -0.00120   0.00000  -0.00925  -0.00925   2.10466
   A21        2.10722  -0.00114   0.00000  -0.00123  -0.00124   2.10598
   A22        2.11138   0.00436   0.00000   0.01494   0.01494   2.12633
   A23        2.09829  -0.00085   0.00000  -0.00117  -0.00117   2.09712
   A24        2.07351  -0.00351   0.00000  -0.01378  -0.01378   2.05973
   A25        2.08238  -0.00103   0.00000   0.00298   0.00298   2.08536
   A26        2.13508   0.00103   0.00000  -0.00029  -0.00029   2.13479
   A27        2.06572   0.00000   0.00000  -0.00269  -0.00269   2.06303
   A28        2.14598  -0.00290   0.00000  -0.00877  -0.00877   2.13721
   A29        2.09075   0.00129   0.00000   0.00555   0.00555   2.09630
   A30        2.04646   0.00161   0.00000   0.00322   0.00322   2.04968
   A31        2.09945  -0.00092   0.00000  -0.00305  -0.00305   2.09640
   A32        2.12225   0.00006   0.00000   0.00062   0.00062   2.12286
   A33        2.06149   0.00087   0.00000   0.00243   0.00243   2.06392
   A34        1.85486  -0.00182   0.00000  -0.01446  -0.01446   1.84040
   A35        2.05947   0.00107   0.00000   0.00714   0.00714   2.06661
   A36        2.11003  -0.00058   0.00000  -0.00137  -0.00137   2.10866
   A37        2.11369  -0.00049   0.00000  -0.00578  -0.00577   2.10791
   A38        2.12626   0.00105   0.00000   0.00649   0.00649   2.13275
   A39        2.08089  -0.00049   0.00000  -0.00404  -0.00404   2.07684
   A40        2.07604  -0.00056   0.00000  -0.00245  -0.00245   2.07359
   A41        2.07415  -0.00083   0.00000  -0.00494  -0.00494   2.06922
   A42        2.11853  -0.00005   0.00000  -0.00138  -0.00138   2.11715
   A43        2.09051   0.00088   0.00000   0.00631   0.00631   2.09682
    D1       -0.24015   0.00013   0.00000   0.07496   0.07493  -0.16522
    D2        3.04442   0.00004   0.00000   0.01427   0.01428   3.05870
    D3        1.85719  -0.00008   0.00000   0.07043   0.07042   1.92761
    D4       -1.14143  -0.00017   0.00000   0.00974   0.00977  -1.13166
    D5       -2.32086   0.00008   0.00000   0.07252   0.07251  -2.24836
    D6        0.96371  -0.00001   0.00000   0.01184   0.01186   0.97556
    D7       -1.11463   0.00016   0.00000   0.01191   0.01195  -1.10268
    D8        1.88252   0.00032   0.00000   0.07344   0.07336   1.95588
    D9        3.07475   0.00001   0.00000   0.01122   0.01128   3.08603
   D10       -0.21129   0.00018   0.00000   0.07276   0.07269  -0.13860
   D11        0.99249  -0.00032   0.00000   0.00506   0.00515   0.99764
   D12       -2.29354  -0.00015   0.00000   0.06660   0.06656  -2.22698
   D13        3.12107  -0.00008   0.00000   0.00720   0.00735   3.12842
   D14       -0.02808  -0.00006   0.00000   0.01213   0.01226  -0.01582
   D15        0.12717  -0.00019   0.00000  -0.05475  -0.05488   0.07228
   D16       -3.02199  -0.00017   0.00000  -0.04983  -0.04997  -3.07196
   D17       -3.11986   0.00000   0.00000  -0.01210  -0.01211  -3.13197
   D18        0.03283   0.00002   0.00000  -0.00785  -0.00786   0.02497
   D19        0.01405   0.00001   0.00000  -0.00714  -0.00713   0.00692
   D20       -3.11644   0.00002   0.00000  -0.00289  -0.00289  -3.11933
   D21        0.01309   0.00003   0.00000  -0.01288  -0.01288   0.00021
   D22       -3.12532   0.00005   0.00000  -0.01059  -0.01058  -3.13590
   D23       -3.13956   0.00002   0.00000  -0.01717  -0.01718   3.12644
   D24        0.00522   0.00003   0.00000  -0.01489  -0.01488  -0.00967
   D25        3.13317  -0.00002   0.00000  -0.02656  -0.02655   3.10662
   D26       -0.00900  -0.00003   0.00000  -0.02696  -0.02695  -0.03594
   D27       -0.00531  -0.00002   0.00000  -0.02438  -0.02439  -0.02970
   D28        3.13571  -0.00003   0.00000  -0.02477  -0.02478   3.11093
   D29        0.00049  -0.00003   0.00000   0.00296   0.00296   0.00345
   D30       -3.14121  -0.00001   0.00000   0.00355   0.00355  -3.13765
   D31       -3.14055  -0.00002   0.00000   0.00333   0.00334  -3.13721
   D32        0.00094  -0.00001   0.00000   0.00393   0.00393   0.00487
   D33        3.14157   0.00002   0.00000  -0.00148  -0.00147   3.14010
   D34       -0.00035   0.00001   0.00000  -0.00455  -0.00454  -0.00489
   D35       -0.00059   0.00001   0.00000  -0.00186  -0.00186  -0.00245
   D36        3.14068   0.00000   0.00000  -0.00493  -0.00493   3.13575
   D37        0.00279  -0.00004   0.00000   0.00933   0.00933   0.01212
   D38       -3.13870  -0.00005   0.00000   0.00875   0.00875  -3.12994
   D39        3.14141   0.00000   0.00000  -0.00168  -0.00168   3.13973
   D40       -0.00067   0.00000   0.00000  -0.00310  -0.00310  -0.00377
   D41       -0.00028   0.00001   0.00000  -0.00112  -0.00111  -0.00140
   D42        3.14082   0.00002   0.00000  -0.00254  -0.00254   3.13828
   D43       -0.00005  -0.00001   0.00000  -0.00113  -0.00113  -0.00117
   D44        3.14145  -0.00001   0.00000  -0.00146  -0.00146   3.13998
   D45       -3.14132   0.00000   0.00000   0.00184   0.00184  -3.13948
   D46        0.00017   0.00000   0.00000   0.00150   0.00151   0.00168
   D47        0.00003   0.00000   0.00000   0.00012   0.00012   0.00014
   D48        3.14157   0.00000   0.00000   0.00140   0.00139  -3.14022
   D49        3.14112   0.00001   0.00000  -0.00134  -0.00134   3.13978
   D50       -0.00052   0.00001   0.00000  -0.00006  -0.00006  -0.00058
   D51        0.00034   0.00000   0.00000   0.00203   0.00203   0.00236
   D52       -3.14121   0.00000   0.00000   0.00077   0.00076  -3.14044
   D53       -3.14116   0.00000   0.00000   0.00236   0.00236  -3.13880
   D54        0.00048   0.00000   0.00000   0.00110   0.00110   0.00158
         Item               Value     Threshold  Converged?
 Maximum Force            0.008717     0.000450     NO 
 RMS     Force            0.001653     0.000300     NO 
 Maximum Displacement     0.155258     0.001800     NO 
 RMS     Displacement     0.039719     0.001200     NO 
 Predicted change in Energy=-6.088104D-04
 GradGradGradGradGradGradGradGradGradGradGradGradGradGradGradGradGradGrad

                          Input orientation:                          
 ---------------------------------------------------------------------
 Center     Atomic      Atomic             Coordinates (Angstroms)
 Number     Number       Type             X           Y           Z
 ---------------------------------------------------------------------
      1          6           0       -3.729296    2.245505    0.003394
      2          1           0       -4.740634    2.637630   -0.086850
      3          1           0       -3.292077    2.608393    0.938897
      4          6           0       -5.082344    0.158240    0.064192
      5          1           0       -5.562487    0.390285    1.018972
      6          7           0       -3.776681    0.793571   -0.018386
      7          1           0       -3.133645    2.620049   -0.833190
      8          1           0       -4.968744   -0.921527   -0.019811
      9          1           0       -5.723830    0.508828   -0.747814
     10          6           0       -2.656704    0.079317   -0.016828
     11          1           0       -2.789618   -0.998157   -0.021129
     12          6           0       -1.373136    0.567526   -0.013333
     13          6           0       -0.283486   -0.360861   -0.024199
     14          1           0       -1.190171    1.630224    0.011645
     15          8           0       -0.470890   -1.599420   -0.036958
     16          6           0        1.126325    0.135813   -0.013411
     17          6           0        2.190564   -0.792976    0.018667
     18          6           0        1.440154    1.503823   -0.035243
     19          8           0        1.988498   -2.118611    0.036241
     20          6           0        3.515571   -0.342303    0.033871
     21          6           0        2.751193    1.909900   -0.022362
     22          1           0        0.669743    2.261971   -0.065484
     23          1           0        1.004900   -2.236026    0.010389
     24          1           0        4.309898   -1.078203    0.060241
     25          6           0        3.803772    1.007875    0.013435
     26          9           0        3.028426    3.236761   -0.045876
     27          1           0        4.826253    1.365328    0.023713
 ---------------------------------------------------------------------
                    Distance matrix (angstroms):
                    1          2          3          4          5
     1  C    0.000000
     2  H    1.088444   0.000000
     3  H    1.094538   1.775198   0.000000
     4  C    2.488194   2.507380   3.158071   0.000000
     5  H    2.798898   2.636066   3.175087   1.093612   0.000000
     6  N    1.452870   2.081934   2.108271   1.454380   2.104247
     7  H    1.093141   1.771933   1.779193   3.265459   3.781749
     8  H    3.401009   3.567090   4.023763   1.088972   1.775514
     9  H    2.749277   2.436257   3.628579   1.092597   1.778093
    10  C    2.417278   3.300399   2.777288   2.428276   3.100509
    11  H    3.377120   4.126710   3.765809   2.569265   3.270838
    12  C    2.892644   3.953578   2.958752   3.732526   4.318302
    13  C    4.320592   5.372247   4.335394   4.827661   5.433256
    14  H    2.612622   3.691931   2.496921   4.161551   4.655029
    15  O    5.040069   6.015464   5.159175   4.936103   5.567610
    16  C    5.294162   6.378534   5.151973   6.209194   6.772797
    17  C    6.654123   7.734449   6.517322   7.334989   7.906359
    18  C    5.222528   6.284133   4.956111   6.660590   7.168564
    19  O    7.193035   8.241250   7.144496   7.428434   8.017337
    20  C    7.693230   8.778354   7.474607   8.612526   9.160691
    21  C    6.489225   7.527365   6.158979   8.027459   8.515332
    22  H    4.399609   5.423445   4.101805   6.126092   6.596965
    23  H    6.518956   7.534796   6.541753   6.541403   7.144601
    24  H    8.699363   9.784742   8.494295   9.473279  10.026944
    25  C    7.634065   8.699025   7.332749   8.926786   9.440303
    26  F    6.830214   7.792235   6.427549   8.676059   9.112635
    27  H    8.600730   9.651751   8.263780   9.981933  10.481754
                    6          7          8          9         10
     6  N    0.000000
     7  H    2.100815   0.000000
     8  H    2.088679   4.070864   0.000000
     9  H    2.098698   3.342694   1.773713   0.000000
    10  C    1.328348   2.710948   2.519371   3.182150   0.000000
    11  H    2.045627   3.724139   2.180473   3.377672   1.085650
    12  C    2.414156   2.825670   3.891750   4.412646   1.373283
    13  C    3.679015   4.202820   4.718687   5.556736   2.413705
    14  H    2.718625   2.338929   4.559609   4.731635   2.134676
    15  O    4.081055   5.052541   4.548684   5.704683   2.756147
    16  C    4.946932   4.999081   6.186103   6.899501   3.783452
    17  C    6.174667   6.381348   7.160565   8.057283   4.925257
    18  C    5.264989   4.775177   6.852484   7.267767   4.337487
    19  O    6.459185   7.031867   7.059700   8.185241   5.139222
    20  C    7.380371   7.330717   8.504234   9.311390   6.186866
    21  C    6.622639   5.982731   8.222798   8.620632   5.709327
    22  H    4.682852   3.896582   6.475282   6.664597   3.978893
    23  H    5.660637   6.435888   6.116637   7.306497   4.332309
    24  H    8.300752   8.359523   9.280310  10.190550   7.062530
    25  C    7.583548   7.172422   8.982245   9.570984   6.526935
    26  F    7.230450   6.242701   9.013699   9.194364   6.503153
    27  H    8.622015   8.103616  10.058507  10.612874   7.592767
                   11         12         13         14         15
    11  H    0.000000
    12  C    2.111361   0.000000
    13  C    2.585895   1.431557   0.000000
    14  H    3.076962   1.078623   2.188100   0.000000
    15  O    2.395469   2.347395   1.252722   3.309129   0.000000
    16  C    4.076832   2.536470   1.494781   2.756819   2.358534
    17  C    4.984566   3.814701   2.511869   4.159486   2.781507
    18  C    4.914374   2.965085   2.539312   2.633778   3.644477
    19  O    4.908065   4.303297   2.873195   4.915110   2.514658
    20  C    6.339447   4.972874   3.799547   5.102487   4.180578
    21  C    6.257586   4.337296   3.790203   3.951421   4.764175
    22  H    4.753691   2.654660   2.790985   1.965791   4.026438
    23  H    3.991451   3.676346   2.275386   4.445923   1.607938
    24  H    7.100434   5.916985   4.649827   6.130963   4.810098
    25  C    6.891890   5.195671   4.310514   5.032573   5.007321
    26  F    7.196164   5.147778   4.890002   4.514514   5.969417
    27  H    7.974307   6.250622   5.393650   6.022265   6.070678
                   16         17         18         19         20
    16  C    0.000000
    17  C    1.412898   0.000000
    18  C    1.403716   2.416880   0.000000
    19  O    2.414173   1.341062   3.664399   0.000000
    20  C    2.437074   1.399636   2.778546   2.342484   0.000000
    21  C    2.405756   2.760711   1.372548   4.100492   2.379045
    22  H    2.175254   3.413602   1.081312   4.575911   3.858867
    23  H    2.375064   1.867689   3.765369   0.990918   3.144870
    24  H    3.407990   2.138845   3.861529   2.543998   1.083143
    25  C    2.816014   2.417754   2.415579   3.615336   1.380746
    26  F    3.637983   4.116425   2.350701   5.456024   3.612944
    27  H    3.899045   3.406634   3.389443   4.493422   2.152671
                   21         22         23         24         25
    21  C    0.000000
    22  H    2.111457   0.000000
    23  H    4.498812   4.511105   0.000000
    24  H    3.371222   4.941993   3.502292   0.000000
    25  C    1.386669   3.376555   4.284459   2.147109   0.000000
    26  F    1.355718   2.552251   5.835171   4.502482   2.360638
    27  H    2.145823   4.253058   5.250968   2.497759   1.083211
                   26         27
    26  F    0.000000
    27  H    2.596013   0.000000
 Stoichiometry    C11H12FNO2
 Framework group  C1[X(C11H12FNO2)]
 Deg. of freedom    75
 Full point group                 C1      NOp   1
 Largest Abelian subgroup         C1      NOp   1
 Largest concise Abelian subgroup C1      NOp   1
                         Standard orientation:                         
 ---------------------------------------------------------------------
 Center     Atomic      Atomic             Coordinates (Angstroms)
 Number     Number       Type             X           Y           Z
[...]
 Alpha virt. eigenvalues --    0.11385   0.11759   0.12694   0.13668   0.14024
 Alpha virt. eigenvalues --    0.14280   0.14967   0.15172   0.15809   0.16113
 Alpha virt. eigenvalues --    0.16362   0.16463   0.16756   0.17042   0.17342
 Alpha virt. eigenvalues --    0.18377   0.18763   0.18927   0.19173   0.19558
 Alpha virt. eigenvalues --    0.19707   0.20324   0.20408   0.20684   0.21450
 Alpha virt. eigenvalues --    0.21804   0.21853   0.22060   0.22470   0.22741
 Alpha virt. eigenvalues --    0.23969   0.24543   0.24788   0.25407   0.25546
 Alpha virt. eigenvalues --    0.26084   0.26805   0.27036   0.27284   0.27668
 Alpha virt. eigenvalues --    0.27893   0.28489   0.28948   0.29710   0.29900
 Alpha virt. eigenvalues --    0.30547   0.31021   0.32146   0.32899   0.33181
 Alpha virt. eigenvalues --    0.33411   0.34616   0.34966   0.35295   0.35583
 Alpha virt. eigenvalues --    0.35795   0.37023   0.37447   0.37731   0.37964
 Alpha virt. eigenvalues --    0.38385   0.38677   0.39180   0.39497   0.39605
 Alpha virt. eigenvalues --    0.41254   0.41615   0.41720   0.42939   0.43516
 Alpha virt. eigenvalues --    0.43946   0.44562   0.45233   0.46447   0.47491
 Alpha virt. eigenvalues --    0.47873   0.48788   0.50457   0.50590   0.52177
 Alpha virt. eigenvalues --    0.53130   0.53325   0.55112   0.56199   0.57815
 Alpha virt. eigenvalues --    0.58111   0.60287   0.60791   0.61285   0.62214
 Alpha virt. eigenvalues --    0.63157   0.63802   0.64939   0.65197   0.66333
 Alpha virt. eigenvalues --    0.66581   0.68431   0.68703   0.69269   0.69655
 Alpha virt. eigenvalues --    0.70274   0.71123   0.71376   0.72037   0.72774
 Alpha virt. eigenvalues --    0.73164   0.73950   0.74291   0.75498   0.77004
 Alpha virt. eigenvalues --    0.77328   0.78255   0.78748   0.80430   0.80961
 Alpha virt. eigenvalues --    0.81954   0.84102   0.85372   0.86389   0.87277
 Alpha virt. eigenvalues --    0.88408   0.89198   0.91911   0.93503   0.94142
 Alpha virt. eigenvalues --    0.94492   0.94866   0.97662   0.98406   0.98741
 Alpha virt. eigenvalues --    0.99683   1.01033   1.01740   1.04259   1.04528
 Alpha virt. eigenvalues --    1.05339   1.06454   1.06731   1.07408   1.10685
 Alpha virt. eigenvalues --    1.11241   1.12430   1.12728   1.14625   1.15641
 Alpha virt. eigenvalues --    1.16532   1.17472   1.18376   1.19496   1.19670
 Alpha virt. eigenvalues --    1.20868   1.23692   1.24300   1.27814   1.30984
 Alpha virt. eigenvalues --    1.31825   1.32516   1.33507   1.36097   1.37326
 Alpha virt. eigenvalues --    1.38985   1.44181   1.44748   1.46457   1.51012
 Alpha virt. eigenvalues --    1.51121   1.51788   1.52637   1.52773   1.53435
 Alpha virt. eigenvalues --    1.54951   1.57054   1.58632   1.59287   1.60027
 Alpha virt. eigenvalues --    1.61362   1.63691   1.63708   1.64486   1.65115
 Alpha virt. eigenvalues --    1.67239   1.67423   1.68296   1.68915   1.69662
 Alpha virt. eigenvalues --    1.71092   1.73146   1.74207   1.75591   1.77250
 Alpha virt. eigenvalues --    1.77860   1.79191   1.80957   1.81636   1.82455
 Alpha virt. eigenvalues --    1.83536   1.85742   1.86847   1.87266   1.91469
 Alpha virt. eigenvalues --    1.92514   1.94792   1.95946   1.96512   1.98476
 Alpha virt. eigenvalues --    1.99478   2.02629   2.03403   2.03953   2.04618
 Alpha virt. eigenvalues --    2.06492   2.07168   2.08064   2.08582   2.11694
 Alpha virt. eigenvalues --    2.12905   2.13648   2.15171   2.18119   2.19178
 Alpha virt. eigenvalues --    2.19982   2.21834   2.24506   2.25729   2.26580
 Alpha virt. eigenvalues --    2.28471   2.30528   2.32468   2.35480   2.40650
 Alpha virt. eigenvalues --    2.41037   2.43126   2.46763   2.48354   2.51105
 Alpha virt. eigenvalues --    2.51425   2.54820   2.55866   2.56383   2.58335
 Alpha virt. eigenvalues --    2.60177   2.63659   2.64383   2.66889   2.69021
 Alpha virt. eigenvalues --    2.70876   2.72700   2.73077   2.73698   2.76368
 Alpha virt. eigenvalues --    2.76872   2.79050   2.80158   2.81212   2.81902
 Alpha virt. eigenvalues --    2.83374   2.84257   2.84897   2.86189   2.87058
 Alpha virt. eigenvalues --    2.88986   2.90250   2.93275   2.94401   2.95339
 Alpha virt. eigenvalues --    2.96123   2.98835   3.02852   3.03098   3.07953
 Alpha virt. eigenvalues --    3.12782   3.16270   3.16717   3.17749   3.19378
 Alpha virt. eigenvalues --    3.21111   3.22445   3.25682   3.28607   3.29242
 Alpha virt. eigenvalues --    3.30003   3.32738   3.38103   3.41364   3.46296
 Alpha virt. eigenvalues --    3.50502   3.56193   3.60197   3.61935   3.66637
 Alpha virt. eigenvalues --    3.69040   3.72002   3.74846   3.79802   3.81816
 Alpha virt. eigenvalues --    3.81940   3.83296   3.86801   3.87458   3.88846
 Alpha virt. eigenvalues --    3.94829   3.95548   3.95606   4.02407   4.06934
 Alpha virt. eigenvalues --    4.09367   4.13014   4.17618   4.21365   4.27734
 Alpha virt. eigenvalues --    4.28869   4.39661   4.64461   4.94661   4.96241
 Alpha virt. eigenvalues --    4.98359   5.12799   5.17880   5.18758   5.41438
 Alpha virt. eigenvalues --    5.61704   5.88180   5.93310   6.43851   6.57871
 Alpha virt. eigenvalues --    6.87009  23.69800  23.94301  24.01499  24.04472
 Alpha virt. eigenvalues --   24.06450  24.08128  24.09746  24.15411  24.23227
 Alpha virt. eigenvalues --   24.27116  24.31965  35.71306  50.12613  50.18969
 Alpha virt. eigenvalues --   66.95206
          Condensed to atoms (all electrons):
               1          2          3          4          5          6
     1  C    5.254838   0.388573   0.417175  -0.055182  -0.002196   0.233590
     2  H    0.388573   0.451588  -0.016919   0.003642  -0.005562  -0.044935
     3  H    0.417175  -0.016919   0.524977  -0.000170  -0.001615  -0.041447
     4  C   -0.055182   0.003642  -0.000170   5.174847   0.406404   0.243991
     5  H   -0.002196  -0.005562  -0.001615   0.406404   0.533257  -0.042015
     6  N    0.233590  -0.044935  -0.041447   0.243991  -0.042015   6.795303
     7  H    0.413500  -0.017516  -0.053153   0.000076   0.002856  -0.036583
     8  H   -0.003158   0.003278  -0.001949   0.412080  -0.025916  -0.098503
     9  H    0.003398  -0.005415   0.002410   0.403401  -0.057991  -0.042035
    10  C    0.162608   0.026155   0.001739  -0.072711  -0.017187   0.225112
    11  H    0.008309  -0.000774   0.001566  -0.034831   0.003165  -0.057570
    12  C    0.165250   0.025422  -0.011944  -0.049119   0.005702  -0.239148
    13  C   -0.287210  -0.021985  -0.002975  -0.090554  -0.000892   0.010064
    14  H    0.003636   0.001281  -0.016573  -0.002695   0.001739  -0.007848
    15  O   -0.001305   0.000044   0.000602  -0.000612  -0.000020   0.003147
    16  C   -0.210047  -0.006436  -0.009395   0.004465  -0.000186  -0.006703
    17  C   -0.025474   0.000311  -0.002026  -0.003231  -0.000293   0.004707
    18  C    0.001105  -0.004666   0.012637  -0.012314   0.000256  -0.025327
    19  O   -0.000137  -0.000008   0.000054   0.000287   0.000002  -0.000144
    20  C    0.006052   0.000306  -0.000575  -0.000374  -0.000004  -0.000264
    21  C   -0.007900  -0.000426  -0.000235   0.001336  -0.000014   0.003739
    22  H    0.006216   0.000201   0.003761  -0.002551  -0.000183  -0.012826
    23  H   -0.000972  -0.000094   0.000074  -0.000113   0.000013  -0.000153
    24  H    0.000096   0.000004  -0.000007   0.000008   0.000000  -0.000028
    25  C   -0.010253  -0.000436  -0.001378  -0.000098   0.000011   0.002977
    26  F   -0.000154  -0.000010  -0.000151   0.000000   0.000000   0.000005
    27  H   -0.000212  -0.000010  -0.000006   0.000005   0.000000   0.000027
               7          8          9         10         11         12
     1  C    0.413500  -0.003158   0.003398   0.162608   0.008309   0.165250
     2  H   -0.017516   0.003278  -0.005415   0.026155  -0.000774   0.025422
     3  H   -0.053153  -0.001949   0.002410   0.001739   0.001566  -0.011944
     4  C    0.000076   0.412080   0.403401  -0.072711  -0.034831  -0.049119
     5  H    0.002856  -0.025916  -0.057991  -0.017187   0.003165   0.005702
     6  N   -0.036583  -0.098503  -0.042035   0.225112  -0.057570  -0.239148
     7  H    0.515259  -0.001784  -0.001167   0.002577  -0.000728  -0.023269
     8  H   -0.001784   0.531947  -0.028047   0.064963  -0.012029  -0.001104
     9  H   -0.001167  -0.028047   0.532484  -0.026229   0.003379   0.013009
    10  C    0.002577   0.064963  -0.026229  11.502626   0.359733   2.771996
    11  H   -0.000728  -0.012029   0.003379   0.359733   0.456473   0.068915
    12  C   -0.023269  -0.001104   0.013009   2.771996   0.068915  12.083129
    13  C   -0.000680   0.003983   0.002299  -3.789972   0.050310   1.002865
    14  H    0.005118  -0.000806  -0.000189   0.177206  -0.003266   0.517865
    15  O    0.000182   0.000362   0.000030   0.006811   0.010282  -0.232303
    16  C   -0.001607   0.006364  -0.000305  -2.628894  -0.082223  -4.354150
    17  C   -0.001630   0.003895  -0.000394  -1.436174  -0.068191  -3.282712
    18  C   -0.003181  -0.004965   0.000977  -1.499240   0.053467  -1.006510
    19  O    0.000031  -0.000100   0.000006   0.003497   0.000318  -0.046009
    20  C   -0.000932   0.000062   0.000006  -0.134603  -0.002275   0.088633
    21  C    0.003142   0.000005  -0.000029   0.175112   0.000452  -0.329780
    22  H   -0.003940  -0.000043   0.000170  -0.168281   0.003796  -0.068294
    23  H   -0.000003  -0.000001   0.000027  -0.019905   0.000921   0.005810
    24  H   -0.000019   0.000001   0.000000   0.000583  -0.000096   0.007495
    25  C    0.001245   0.000111  -0.000026  -0.161246  -0.004067  -0.649934
    26  F    0.000011   0.000000   0.000000  -0.000903  -0.000050   0.005247
    27  H    0.000023   0.000002   0.000000  -0.002042  -0.000064  -0.015590
              13         14         15         16         17         18
     1  C   -0.287210   0.003636  -0.001305  -0.210047  -0.025474   0.001105
     2  H   -0.021985   0.001281   0.000044  -0.006436   0.000311  -0.004666
     3  H   -0.002975  -0.016573   0.000602  -0.009395  -0.002026   0.012637
     4  C   -0.090554  -0.002695  -0.000612   0.004465  -0.003231  -0.012314
     5  H   -0.000892   0.001739  -0.000020  -0.000186  -0.000293   0.000256
     6  N    0.010064  -0.007848   0.003147  -0.006703   0.004707  -0.025327
     7  H   -0.000680   0.005118   0.000182  -0.001607  -0.001630  -0.003181
     8  H    0.003983  -0.000806   0.000362   0.006364   0.003895  -0.004965
     9  H    0.002299  -0.000189   0.000030  -0.000305  -0.000394   0.000977
    10  C   -3.789972   0.177206   0.006811  -2.628894  -1.436174  -1.499240
    11  H    0.050310  -0.003266   0.010282  -0.082223  -0.068191   0.053467
    12  C    1.002865   0.517865  -0.232303  -4.354150  -3.282712  -1.006510
    13  C   12.637483  -0.055909   0.864455   1.391185  -4.028213   0.572355
    14  H   -0.055909   0.777429  -0.017857   0.125742   0.024671  -0.607039
    15  O    0.864455  -0.017857   8.239401  -0.142980  -0.192775  -0.141333
    16  C    1.391185   0.125742  -0.142980  18.383101   1.591763  -6.392255
    17  C   -4.028213   0.024671  -0.192775   1.591763  15.724470  -4.119486
    18  C    0.572355  -0.607039  -0.141333  -6.392255  -4.119486  19.987637
    19  O   -0.069059  -0.001825  -0.005896   0.083938   0.338320  -0.000170
    20  C   -0.533767  -0.010901  -0.035403  -2.699098   0.711400   1.140887
    21  C   -0.333617  -0.045616   0.005679  -1.580930   0.281570   1.163724
    22  H   -0.005962  -0.152201   0.005394  -0.506334   0.007355   1.453644
    23  H    0.026878  -0.003962   0.072987  -0.141279  -0.011734   0.066848
    24  H    0.012703  -0.000714   0.001234  -0.098159  -0.131816   0.059293
    25  C   -0.861785   0.130911  -0.035195   1.228344   0.444359  -2.786308
    26  F    0.010251   0.016162   0.000001   0.107543   0.010567  -0.148395
    27  H   -0.015175   0.001949  -0.000320   0.113468   0.057153  -0.162189
              19         20         21         22         23         24
     1  C   -0.000137   0.006052  -0.007900   0.006216  -0.000972   0.000096
     2  H   -0.000008   0.000306  -0.000426   0.000201  -0.000094   0.000004
     3  H    0.000054  -0.000575  -0.000235   0.003761   0.000074  -0.000007
     4  C    0.000287  -0.000374   0.001336  -0.002551  -0.000113   0.000008
     5  H    0.000002  -0.000004  -0.000014  -0.000183   0.000013   0.000000
     6  N   -0.000144  -0.000264   0.003739  -0.012826  -0.000153  -0.000028
     7  H    0.000031  -0.000932   0.003142  -0.003940  -0.000003  -0.000019
     8  H   -0.000100   0.000062   0.000005  -0.000043  -0.000001   0.000001
     9  H    0.000006   0.000006  -0.000029   0.000170   0.000027   0.000000
    10  C    0.003497  -0.134603   0.175112  -0.168281  -0.019905   0.000583
    11  H    0.000318  -0.002275   0.000452   0.003796   0.000921  -0.000096
    12  C   -0.046009   0.088633  -0.329780  -0.068294   0.005810   0.007495
    13  C   -0.069059  -0.533767  -0.333617  -0.005962   0.026878   0.012703
    14  H   -0.001825  -0.010901  -0.045616  -0.152201  -0.003962  -0.000714
    15  O   -0.005896  -0.035403   0.005679   0.005394   0.072987   0.001234
    16  C    0.083938  -2.699098  -1.580930  -0.506334  -0.141279  -0.098159
    17  C    0.338320   0.711400   0.281570   0.007355  -0.011734  -0.131816
    18  C   -0.000170   1.140887   1.163724   1.453644   0.066848   0.059293
    19  O    8.177053  -0.376799   0.006204  -0.001143   0.251125  -0.023065
    20  C   -0.376799   7.796501  -0.109824   0.088947   0.068463   0.530469
    21  C    0.006204  -0.109824   8.925351  -0.061309   0.011101   0.040397
    22  H   -0.001143   0.088947  -0.061309   0.658453   0.004673   0.003982
    23  H    0.251125   0.068463   0.011101   0.004673   0.298833   0.001691
    24  H   -0.023065   0.530469   0.040397   0.003982   0.001691   0.441053
    25  C    0.014869   0.008764  -1.706945  -0.379999  -0.005463  -0.090946
    26  F    0.000144   0.000248   0.353586  -0.071526   0.000157   0.001043
    27  H    0.001151  -0.053381  -0.217750  -0.010161  -0.000431  -0.012123
              25         26         27
     1  C   -0.010253  -0.000154  -0.000212
     2  H   -0.000436  -0.000010  -0.000010
     3  H   -0.001378  -0.000151  -0.000006
     4  C   -0.000098   0.000000   0.000005
     5  H    0.000011   0.000000   0.000000
     6  N    0.002977   0.000005   0.000027
     7  H    0.001245   0.000011   0.000023
     8  H    0.000111   0.000000   0.000002
     9  H   -0.000026   0.000000   0.000000
    10  C   -0.161246  -0.000903  -0.002042
    11  H   -0.004067  -0.000050  -0.000064
    12  C   -0.649934   0.005247  -0.015590
    13  C   -0.861785   0.010251  -0.015175
    14  H    0.130911   0.016162   0.001949
    15  O   -0.035195   0.000001  -0.000320
    16  C    1.228344   0.107543   0.113468
    17  C    0.444359   0.010567   0.057153
    18  C   -2.786308  -0.148395  -0.162189
    19  O    0.014869   0.000144   0.001151
    20  C    0.008764   0.000248  -0.053381
    21  C   -1.706945   0.353586  -0.217750
    22  H   -0.379999  -0.071526  -0.010161
    23  H   -0.005463   0.000157  -0.000431
    24  H   -0.090946   0.001043  -0.012123
    25  C   10.372367  -0.234900   0.621684
    26  F   -0.234900   9.150443  -0.021543
    27  H    0.621684  -0.021543   0.441066
 Mulliken charges:
               1
     1  C   -0.460143
     2  H    0.224387
     3  H    0.195520
     4  C   -0.325986
     5  H    0.200669
     6  N    0.132869
     7  H    0.202173
     8  H    0.151355
     9  H    0.200229
    10  C    0.476669
    11  H    0.245079
    12  C   -0.451472
    13  C   -0.487075
    14  H    0.143690
    15  O   -0.404610
    16  C    1.825069
    17  C    0.103608
    18  C   -1.599452
    19  O   -0.352643
    20  C   -0.482538
    21  C   -0.577022
    22  H    0.208159
    23  H    0.374511
    24  H    0.256920
    25  C    0.103338
    26  F   -0.177776
    27  H    0.274472
 Sum of Mulliken charges =   0.00000
 Mulliken charges with hydrogens summed into heavy atoms:
               1
     1  C    0.161937
     4  C    0.226267
     6  N    0.132869
    10  C    0.721748
    12  C   -0.307782
    13  C   -0.487075
    15  O   -0.404610
    16  C    1.825069
    17  C    0.103608
    18  C   -1.391292
    19  O    0.021867
    20  C   -0.225617
    21  C   -0.577022
    25  C    0.377810
    26  F   -0.177776
 Electronic spatial extent (au):  <R**2>=           4465.9020
 Charge=              0.0000 electrons
 Dipole moment (field-independent basis, Debye):
    X=              8.0549    Y=              3.8495    Z=             -0.1079  Tot=              8.9281
 Quadrupole moment (field-independent basis, Debye-Ang):
   XX=            -50.4974   YY=            -98.7087   ZZ=            -90.8729
   XY=              5.4906   XZ=              0.1288   YZ=             -0.3330
 Traceless Quadrupole moment (field-independent basis, Debye-Ang):
   XX=             29.5289   YY=            -18.6824   ZZ=            -10.8466
   XY=              5.4906   XZ=              0.1288   YZ=             -0.3330
 Octapole moment (field-independent basis, Debye-Ang**2):
  XXX=            129.8324  YYY=             24.5884  ZZZ=              0.4061  XYY=             46.8668
  XXY=              8.8037  XXZ=             -1.3277  XZZ=              4.9147  YZZ=              3.8420
  YYZ=             -0.3913  XYZ=             -0.4704
 Hexadecapole moment (field-independent basis, Debye-Ang**3):
 XXXX=          -3394.5651 YYYY=          -1257.7960 ZZZZ=           -110.9614 XXXY=             28.9025
 XXXZ=              6.4788 YYYX=              4.2143 YYYZ=             -1.5368 ZZZX=             -1.9276
 ZZZY=              0.5525 XXYY=           -962.1074 XXZZ=           -791.0532 YYZZ=           -211.2798
 XXYZ=             -5.6692 YYXZ=             -0.9051 ZZXY=            -11.1021
 N-N= 9.441570859091D+02 E-N=-3.599645635852D+03  KE= 7.286741918995D+02
 1\1\GINC-DN3\FOpt\RwB97XD\6-311++G(d,p)\C11H12F1N1O2\CA12053\31-Jan-20
 17\0\\# wb97xd 6-311++g** opt=CalcFC guess=read geom=allcheck SCRF=(PC
 M,solvent=dichloromethane)\\Geom Opt s0\\0,1\C,-3.7240407619,2.2450656
 176,0.0835165682\H,-4.7378173385,2.636700363,0.142963594\H,-3.16773204
 02,2.5775574429,0.9644571792\C,-5.0858539755,0.1636338998,-0.005500179
 \H,-5.6534653465,0.4192924997,0.8929829734\N,-3.7754118686,0.793854049
 4,0.0299062325\H,-3.2425166503,2.6488080331,-0.8120989114\H,-4.9699219
 071,-0.9180247185,-0.0539429112\H,-5.6439043897,0.4982942453,-0.883776
 9604\C,-2.6570999267,0.0775500451,-0.0008171006\H,-2.791673365,-0.9989
 755541,-0.0390891289\C,-1.3725715883,0.5645294872,0.0106907889\C,-0.28
 32672533,-0.364674857,-0.0108587614\H,-1.1884880805,1.6269235757,0.044
 3616496\O,-0.4703055676,-1.6035254184,-0.0193297374\C,1.1262969149,0.1
 329503526,-0.0158365955\C,2.1916296565,-0.7929965422,0.0436698877\C,1.
 4377477676,1.5000603878,-0.0784832718\O,1.9915027457,-2.118310686,0.09
 5688383\C,3.5157726693,-0.3398084583,0.0510505396\C,2.7481271249,1.908
 5912943,-0.0752658731\H,0.665222225,2.2545129428,-0.135971749\H,1.0088
 836082,-2.2391523269,0.0580193051\H,4.3113268743,-1.0731779371,0.10093
 77241\C,3.8018909176,1.0097886488,-0.0083802205\F,3.0234120814,3.23452
 84914,-0.1402698553\H,4.8238133935,1.3689614902,-0.0058407231\\Version
 =ES64L-G09RevD.01\State=1-A\HF=-731.4043702\RMSD=7.562e-09\RMSF=6.583e
 -06\Dipole=-3.1704721,1.5118272,0.0268767\Quadrupole=21.9635596,-13.88
 36236,-8.0799361,-4.0397251,0.0054238,0.4070311\PG=C01 [X(C11H12F1N1O2
 )]\\@


 CLIMB THE MOUNTAINS AND GET THEIR GOOD TIDINGS.
 NATURE'S PEACE WILL FLOW INTO YOU AS SUNSHINE FLOWS INTO TREES.
 THE WINDS WILL BLOW THEIR OWN FRESHNESS INTO YOU, 
 AND CARES WILL DROP OFF LIKE AUTUMN LEAVES.

                                         -- JOHN MUIR
 Job cpu time:       1 days  0 hours 32 minutes 10.4 seconds.
 File lengths (MBytes):  RWF=    819 Int=      0 D2E=      0 Chk=     21 Scr=      1
 Normal termination of Gaussian 09 at Tue Jan 31 00:11:05 2017.
