 Entering Gaussian System, Link 0=g09
 Input=4_optS1_DCM_calcfc.com
 Output=4_optS1_DCM_calcfc.out
 Initial command:
 /share/apps/gaussian/g09_D01/g09/l1.exe "/tmp/3968293.1.smserial.q/Gau-62089.inp" -scrdir="/tmp/3968293.1.smserial.q/"
 Entering Link 1 = /share/apps/gaussian/g09_D01/g09/l1.exe PID=     62090.
  
 Copyright (c) 1988,1990,1992,1993,1995,1998,2003,2009,2013,
            Gaussian, Inc.  All Rights Reserved.
  
 This is part of the Gaussian(R) 09 program.  It is based on
 the Gaussian(R) 03 system (copyright 2003, Gaussian, Inc.),
 the Gaussian(R) 98 system (copyright 1998, Gaussian, Inc.),
 the Gaussian(R) 94 system (copyright 1995, Gaussian, Inc.),
 the Gaussian 92(TM) system (copyright 1992, Gaussian, Inc.),
 the Gaussian 90(TM) system (copyright 1990, Gaussian, Inc.),
 the Gaussian 88(TM) system (copyright 1988, Gaussian, Inc.),
 the Gaussian 86(TM) system (copyright 1986, Carnegie Mellon
 University), and the Gaussian 82(TM) system (copyright 1983,
 Carnegie Mellon University). Gaussian is a federally registered
 trademark of Gaussian, Inc.
  
 This software contains proprietary and confidential information,
 including trade secrets, belonging to Gaussian, Inc.
  
 This software is provided under written license and may be
 used, copied, transmitted, or stored only in accord with that
 written license.
  
 The following legend is applicable only to US Government
 contracts under FAR:
  
                    RESTRICTED RIGHTS LEGEND
  
 Use, reproduction and disclosure by the US Government is
 subject to restrictions as set forth in subparagraphs (a)
 and (c) of the Commercial Computer Software - Restricted
 Rights clause in FAR 52.227-19.
  
 Gaussian, Inc.
 340 Quinnipiac St., Bldg. 40, Wallingford CT 06492
  
  
 ---------------------------------------------------------------
 Warning -- This program may not be used in any manner that
 competes with the business of Gaussian, Inc. or will provide
 assistance to any competitor of Gaussian, Inc.  The licensee
 of this program is prohibited from giving any competitor of
 Gaussian, Inc. access to this program.  By using this program,
 the user acknowledges that Gaussian, Inc. is engaged in the
 business of creating and licensing software in the field of
 computational chemistry and represents and warrants to the
 licensee that it is not a competitor of Gaussian, Inc. and that
 it will not use this program in any manner prohibited above.
 ---------------------------------------------------------------
  

 Cite this work as:
 Gaussian 09, Revision D.01,
 M. J. Frisch, G. W. Trucks, H. B. Schlegel, G. E. Scuseria, 
 M. A. Robb, J. R. Cheeseman, G. Scalmani, V. Barone, B. Mennucci, 
 G. A. Petersson, H. Nakatsuji, M. Caricato, X. Li, H. P. Hratchian, 
 A. F. Izmaylov, J. Bloino, G. Zheng, J. L. Sonnenberg, M. Hada, 
 M. Ehara, K. Toyota, R. Fukuda, J. Hasegawa, M. Ishida, T. Nakajima, 
 Y. Honda, O. Kitao, H. Nakai, T. Vreven, J. A. Montgomery, Jr., 
 J. E. Peralta, F. Ogliaro, M. Bearpark, J. J. Heyd, E. Brothers, 
 K. N. Kudin, V. N. Staroverov, T. Keith, R. Kobayashi, J. Normand, 
 K. Raghavachari, A. Rendell, J. C. Burant, S. S. Iyengar, J. Tomasi, 
 M. Cossi, N. Rega, J. M. Millam, M. Klene, J. E. Knox, J. B. Cross, 
 V. Bakken, C. Adamo, J. Jaramillo, R. Gomperts, R. E. Stratmann, 
 O. Yazyev, A. J. Austin, R. Cammi, C. Pomelli, J. W. Ochterski, 
 R. L. Martin, K. Morokuma, V. G. Zakrzewski, G. A. Voth, 
 P. Salvador, J. J. Dannenberg, S. Dapprich, A. D. Daniels, 
 O. Farkas, J. B. Foresman, J. V. Ortiz, J. Cioslowski, 
 and D. J. Fox, Gaussian, Inc., Wallingford CT, 2013.
 
 ******************************************
 Gaussian 09:  ES64L-G09RevD.01 24-Apr-2013
                12-Mar-2017 
 ******************************************
 %chk=4_optS1_DCM_calcfc.chk
 %mem=21GB
 %nproc=8
 Will use up to    8 processors via shared memory.
 ----------------------------------------------------------------------
 # wb97xd 6-311++g** opt integral=ultrafine td=(nstates=1,root=1) SCRF=
 (PCM,solvent=dichloromethane)
 ----------------------------------------------------------------------
 1/14=-1,18=20,19=15,26=4,38=1/1,3;
 2/9=110,12=2,17=6,18=5,40=1/2;
 3/5=4,6=6,7=1111,11=9,16=1,25=1,30=1,70=2201,71=1,72=9,74=-58,75=-5/1,2,8,3;
 4//1;
 5/5=2,38=5,53=9/2;
 8/6=1,10=2,107=1,108=1/1;
 9/8=1,15=2,41=1,42=1,70=2/14;
 10/5=4/2;
 6/7=2,8=2,9=2,10=2/1;
 7/12=6,13=5,14=1/1,2,3,16;
 1/14=-1,18=20,19=15,26=4/3(2);
 2/9=110/2;
 99//99;
 2/9=110/2;
 3/5=4,6=6,7=1111,11=9,16=1,25=1,30=1,70=2205,71=1,72=9,74=-58,75=-5/1,2,8,3;
 4/5=5,16=3,69=1/1;
 5/5=2,38=5,53=9/2;
 8/6=1,10=2,107=1,108=1/1;
 9/8=1,15=2,41=1,42=1,49=4,70=2/14;
 10/5=4/2;
 7/12=6,13=5,14=1/1,2,3,16;
 1/14=-1,18=20,19=15,26=4/3(-8);
 2/9=110/2;
 6/7=2,8=2,9=2,10=2/1;
 99//99;
 -------------
 restarted opt
 -------------
 Symbolic Z-matrix:
 Charge =  0 Multiplicity = 1
 C                    -3.66759   0.93327  -1.58164 
 H                    -4.63794   1.04084  -2.06794 
 H                    -3.25532   1.9377   -1.3979 
 C                    -5.04753   0.41093   0.37776 
 H                    -5.08277   1.41933   0.81606 
 N                    -3.82683   0.17357  -0.36478 
 H                    -3.00129   0.40683  -2.26859 
 H                    -5.1297   -0.3171    1.18648 
 H                    -5.91075   0.28726  -0.27997 
 C                    -2.70859  -0.1791    0.35212 
 H                    -2.90774  -0.67637   1.29312 
 C                    -1.40298   0.00492  -0.04368 
 C                    -0.30421  -0.43963   0.67409 
 H                    -1.18462   0.52381  -0.9693 
 O                    -0.4841   -1.01229   1.90586 
 C                     1.09397  -0.21379   0.24592 
 C                     1.78     -1.28622  -0.45723 
 C                     1.76459   0.95817   0.53949 
 O                     1.22539  -2.38612  -0.63892 
 C                     3.13904  -1.03936  -0.89788 
 C                     3.06833   1.12054   0.10208 
 H                     1.27991   1.75922   1.08313 
 H                    -0.38001  -1.87151   1.49226 
 H                     3.63407  -1.83158  -1.44625 
 C                     3.76707   0.13802  -0.6211 
 F                     3.69841   2.26794   0.36418 
 H                     4.78392   0.33983  -0.93492 
 

 GradGradGradGradGradGradGradGradGradGradGradGradGradGradGradGradGradGrad
 Berny optimization.
 Initialization pass.
                           ----------------------------
                           !    Initial Parameters    !
                           ! (Angstroms and Degrees)  !
 --------------------------                            --------------------------
 ! Name  Definition              Value          Derivative Info.                !
 --------------------------------------------------------------------------------
 ! R1    R(1,2)                  1.0907         estimate D2E/DX2                !
 ! R2    R(1,3)                  1.1012         estimate D2E/DX2                !
 ! R3    R(1,6)                  1.4433         estimate D2E/DX2                !
 ! R4    R(1,7)                  1.0922         estimate D2E/DX2                !
 ! R5    R(4,5)                  1.1001         estimate D2E/DX2                !
 ! R6    R(4,6)                  1.4484         estimate D2E/DX2                !
 ! R7    R(4,8)                  1.0912         estimate D2E/DX2                !
 ! R8    R(4,9)                  1.0923         estimate D2E/DX2                !
 ! R9    R(6,10)                 1.3743         estimate D2E/DX2                !
 ! R10   R(10,11)                1.0828         estimate D2E/DX2                !
 ! R11   R(10,12)                1.3766         estimate D2E/DX2                !
 ! R12   R(12,13)                1.3857         estimate D2E/DX2                !
 ! R13   R(12,14)                1.0834         estimate D2E/DX2                !
 ! R14   R(13,15)                1.3702         estimate D2E/DX2                !
 ! R15   R(13,16)                1.4796         estimate D2E/DX2                !
 ! R16   R(15,23)                0.9592         estimate D2E/DX2                !
 ! R17   R(16,17)                1.4544         estimate D2E/DX2                !
 ! R18   R(16,18)                1.3818         estimate D2E/DX2                !
 ! R19   R(17,19)                1.2451         estimate D2E/DX2                !
 ! R20   R(17,20)                1.4499         estimate D2E/DX2                !
 ! R21   R(18,21)                1.3847         estimate D2E/DX2                !
 ! R22   R(18,22)                1.0827         estimate D2E/DX2                !
 ! R23   R(20,24)                1.0832         estimate D2E/DX2                !
 ! R24   R(20,25)                1.3628         estimate D2E/DX2                !
 ! R25   R(21,25)                1.4059         estimate D2E/DX2                !
 ! R26   R(21,26)                1.335          estimate D2E/DX2                !
 ! R27   R(25,27)                1.0831         estimate D2E/DX2                !
 ! A1    A(2,1,3)              108.5127         estimate D2E/DX2                !
 ! A2    A(2,1,6)              109.2479         estimate D2E/DX2                !
 ! A3    A(2,1,7)              108.0494         estimate D2E/DX2                !
 ! A4    A(3,1,6)              112.3788         estimate D2E/DX2                !
 ! A5    A(3,1,7)              108.4318         estimate D2E/DX2                !
 ! A6    A(6,1,7)              110.1124         estimate D2E/DX2                !
 ! A7    A(5,4,6)              112.4249         estimate D2E/DX2                !
 ! A8    A(5,4,8)              108.2925         estimate D2E/DX2                !
 ! A9    A(5,4,9)              108.5653         estimate D2E/DX2                !
 ! A10   A(6,4,8)              109.5159         estimate D2E/DX2                !
 ! A11   A(6,4,9)              109.8038         estimate D2E/DX2                !
 ! A12   A(8,4,9)              108.1325         estimate D2E/DX2                !
 ! A13   A(1,6,4)              116.0368         estimate D2E/DX2                !
 ! A14   A(1,6,10)             119.0175         estimate D2E/DX2                !
 ! A15   A(4,6,10)             117.4121         estimate D2E/DX2                !
 ! A16   A(6,10,11)            114.9309         estimate D2E/DX2                !
 ! A17   A(6,10,12)            125.9731         estimate D2E/DX2                !
 ! A18   A(11,10,12)           119.0575         estimate D2E/DX2                !
 ! A19   A(10,12,13)           124.0711         estimate D2E/DX2                !
 ! A20   A(10,12,14)           120.0548         estimate D2E/DX2                !
 ! A21   A(13,12,14)           115.8739         estimate D2E/DX2                !
 ! A22   A(12,13,15)           119.7106         estimate D2E/DX2                !
 ! A23   A(12,13,16)           123.3978         estimate D2E/DX2                !
 ! A24   A(15,13,16)           116.6143         estimate D2E/DX2                !
 ! A25   A(13,15,23)            88.4247         estimate D2E/DX2                !
 ! A26   A(13,16,17)           118.2359         estimate D2E/DX2                !
 ! A27   A(13,16,18)           121.775          estimate D2E/DX2                !
 ! A28   A(17,16,18)           119.9467         estimate D2E/DX2                !
 ! A29   A(16,17,19)           120.7846         estimate D2E/DX2                !
 ! A30   A(16,17,20)           117.6163         estimate D2E/DX2                !
 ! A31   A(19,17,20)           121.5723         estimate D2E/DX2                !
 ! A32   A(16,18,21)           119.2931         estimate D2E/DX2                !
 ! A33   A(16,18,22)           121.1275         estimate D2E/DX2                !
 ! A34   A(21,18,22)           119.5615         estimate D2E/DX2                !
 ! A35   A(17,20,24)           117.2389         estimate D2E/DX2                !
 ! A36   A(17,20,25)           121.154          estimate D2E/DX2                !
 ! A37   A(24,20,25)           121.6048         estimate D2E/DX2                !
 ! A38   A(18,21,25)           123.2628         estimate D2E/DX2                !
 ! A39   A(18,21,26)           118.8905         estimate D2E/DX2                !
 ! A40   A(25,21,26)           117.8438         estimate D2E/DX2                !
 ! A41   A(20,25,21)           118.6328         estimate D2E/DX2                !
 ! A42   A(20,25,27)           122.3278         estimate D2E/DX2                !
 ! A43   A(21,25,27)           119.0389         estimate D2E/DX2                !
 ! D1    D(2,1,6,4)            -36.479          estimate D2E/DX2                !
 ! D2    D(2,1,6,10)           174.5473         estimate D2E/DX2                !
 ! D3    D(3,1,6,4)             84.0168         estimate D2E/DX2                !
 ! D4    D(3,1,6,10)           -64.957          estimate D2E/DX2                !
 ! D5    D(7,1,6,4)           -154.992          estimate D2E/DX2                !
 ! D6    D(7,1,6,10)            56.0343         estimate D2E/DX2                !
 ! D7    D(5,4,6,1)            -68.0486         estimate D2E/DX2                !
 ! D8    D(5,4,6,10)            81.438          estimate D2E/DX2                !
 ! D9    D(8,4,6,1)            171.52           estimate D2E/DX2                !
 ! D10   D(8,4,6,10)           -38.9935         estimate D2E/DX2                !
 ! D11   D(9,4,6,1)             52.9279         estimate D2E/DX2                !
 ! D12   D(9,4,6,10)          -157.5855         estimate D2E/DX2                !
 ! D13   D(1,6,10,11)          175.2236         estimate D2E/DX2                !
 ! D14   D(1,6,10,12)           -7.0685         estimate D2E/DX2                !
 ! D15   D(4,6,10,11)           26.6698         estimate D2E/DX2                !
 ! D16   D(4,6,10,12)         -155.6223         estimate D2E/DX2                !
 ! D17   D(6,10,12,13)        -175.8807         estimate D2E/DX2                !
 ! D18   D(6,10,12,14)           4.0065         estimate D2E/DX2                !
 ! D19   D(11,10,12,13)          1.7415         estimate D2E/DX2                !
 ! D20   D(11,10,12,14)       -178.3713         estimate D2E/DX2                !
 ! D21   D(10,12,13,15)         -5.1994         estimate D2E/DX2                !
 ! D22   D(10,12,13,16)       -178.9402         estimate D2E/DX2                !
 ! D23   D(14,12,13,15)        174.9091         estimate D2E/DX2                !
 ! D24   D(14,12,13,16)          1.1683         estimate D2E/DX2                !
 ! D25   D(12,13,15,23)        100.8683         estimate D2E/DX2                !
 ! D26   D(16,13,15,23)        -84.9751         estimate D2E/DX2                !
 ! D27   D(12,13,16,17)        -97.7944         estimate D2E/DX2                !
 ! D28   D(12,13,16,18)         84.5767         estimate D2E/DX2                !
 ! D29   D(15,13,16,17)         88.2855         estimate D2E/DX2                !
 ! D30   D(15,13,16,18)        -89.3433         estimate D2E/DX2                !
 ! D31   D(13,16,17,19)         -3.2499         estimate D2E/DX2                !
 ! D32   D(13,16,17,20)        178.6041         estimate D2E/DX2                !
 ! D33   D(18,16,17,19)        174.4237         estimate D2E/DX2                !
 ! D34   D(18,16,17,20)         -3.7222         estimate D2E/DX2                !
 ! D35   D(13,16,18,21)       -179.3687         estimate D2E/DX2                !
 ! D36   D(13,16,18,22)         -0.9134         estimate D2E/DX2                !
 ! D37   D(17,16,18,21)          3.0422         estimate D2E/DX2                !
 ! D38   D(17,16,18,22)       -178.5025         estimate D2E/DX2                !
 ! D39   D(16,17,20,24)       -178.2592         estimate D2E/DX2                !
 ! D40   D(16,17,20,25)          2.2846         estimate D2E/DX2                !
 ! D41   D(19,17,20,24)          3.6104         estimate D2E/DX2                !
 ! D42   D(19,17,20,25)       -175.8459         estimate D2E/DX2                !
 ! D43   D(16,18,21,25)         -0.8626         estimate D2E/DX2                !
 ! D44   D(16,18,21,26)        178.5088         estimate D2E/DX2                !
 ! D45   D(22,18,21,25)       -179.3424         estimate D2E/DX2                !
 ! D46   D(22,18,21,26)          0.0289         estimate D2E/DX2                !
 ! D47   D(17,20,25,21)         -0.1838         estimate D2E/DX2                !
 ! D48   D(17,20,25,27)        179.564          estimate D2E/DX2                !
 ! D49   D(24,20,25,21)       -179.6161         estimate D2E/DX2                !
 ! D50   D(24,20,25,27)          0.1317         estimate D2E/DX2                !
 ! D51   D(18,21,25,20)         -0.6071         estimate D2E/DX2                !
 ! D52   D(18,21,25,27)        179.6366         estimate D2E/DX2                !
 ! D53   D(26,21,25,20)       -179.9846         estimate D2E/DX2                !
 ! D54   D(26,21,25,27)          0.2591         estimate D2E/DX2                !
 --------------------------------------------------------------------------------
 Trust Radius=3.00D-01 FncErr=1.00D-07 GrdErr=1.00D-06
 Number of steps in this run=    134 maximum allowed number of steps=    162.
 GradGradGradGradGradGradGradGradGradGradGradGradGradGradGradGradGradGrad

                          Input orientation:                          
 ---------------------------------------------------------------------
 Center     Atomic      Atomic             Coordinates (Angstroms)
 Number     Number       Type             X           Y           Z
 ---------------------------------------------------------------------
      1          6           0       -3.667593    0.933266   -1.581637
      2          1           0       -4.637943    1.040836   -2.067941
      3          1           0       -3.255318    1.937698   -1.397897
      4          6           0       -5.047530    0.410930    0.377763
      5          1           0       -5.082768    1.419330    0.816064
      6          7           0       -3.826832    0.173570   -0.364777
      7          1           0       -3.001287    0.406833   -2.268585
      8          1           0       -5.129702   -0.317098    1.186476
      9          1           0       -5.910753    0.287259   -0.279965
     10          6           0       -2.708585   -0.179099    0.352119
     11          1           0       -2.907735   -0.676370    1.293124
     12          6           0       -1.402983    0.004924   -0.043676
     13          6           0       -0.304210   -0.439633    0.674086
     14          1           0       -1.184618    0.523810   -0.969303
     15          8           0       -0.484100   -1.012295    1.905856
     16          6           0        1.093971   -0.213793    0.245922
     17          6           0        1.779998   -1.286217   -0.457234
     18          6           0        1.764587    0.958168    0.539492
     19          8           0        1.225386   -2.386117   -0.638919
     20          6           0        3.139040   -1.039358   -0.897881
     21          6           0        3.068329    1.120539    0.102081
     22          1           0        1.279905    1.759220    1.083129
     23          1           0       -0.380007   -1.871514    1.492263
     24          1           0        3.634068   -1.831580   -1.446250
     25          6           0        3.767070    0.138016   -0.621101
     26          9           0        3.698413    2.267938    0.364182
     27          1           0        4.783921    0.339832   -0.934917
 ---------------------------------------------------------------------
                    Distance matrix (angstroms):
                    1          2          3          4          5
     1  C    0.000000
     2  H    1.090707   0.000000
     3  H    1.101188   1.779037   0.000000
     4  C    2.452817   2.558517   2.948900   0.000000
     5  H    2.826296   2.942552   2.917174   1.100100   0.000000
     6  N    1.443344   2.076251   2.122761   1.448382   2.126894
     7  H    1.092242   1.766596   1.779375   3.345188   3.856523
     8  H    3.370997   3.560483   3.908504   1.091235   1.776117
     9  H    2.672722   2.320513   3.320400   1.092270   1.780007
    10  C    2.428264   3.326763   2.800411   2.412355   2.899477
    11  H    3.381207   4.152008   3.767726   2.568819   3.057828
    12  C    2.890606   3.954204   3.000112   3.691229   4.034912
    13  C    4.276153   5.337766   4.319011   4.828079   5.129378
    14  H    2.589937   3.660570   2.543732   4.092605   4.380076
    15  O    5.107097   6.104164   5.224643   5.018519   5.314903
    16  C    5.227639   6.307368   5.123219   6.174601   6.414379
    17  C    5.988876   7.014237   6.052510   7.084678   7.485909
    18  C    5.831671   6.913605   5.469223   6.835976   6.868437
    19  O    5.987342   6.940082   6.272809   6.943097   7.509408
    20  C    7.119622   8.134968   7.071117   8.411334   8.751050
    21  C    6.945691   8.006371   6.550282   8.151485   8.187761
    22  H    5.679869   6.742866   5.172581   6.507831   6.377339
    23  H    5.303195   6.267923   5.579474   5.313890   5.779521
    24  H    7.808774   8.778578   7.853244   9.150192   9.574430
    25  C    7.538519   8.576286   7.290830   8.875212   9.056867
    26  F    7.734701   8.770167   7.181111   8.940927   8.833656
    27  H    8.496970   9.515601   8.209561   9.918952  10.078829
                    6          7          8          9         10
     6  N    0.000000
     7  H    2.088162   0.000000
     8  H    2.084373   4.122096   0.000000
     9  H    2.088742   3.526174   1.767975   0.000000
    10  C    1.374333   2.701311   2.564567   3.297105   0.000000
    11  H    2.077444   3.723956   2.253350   3.524387   1.082788
    12  C    2.450835   2.768813   3.937691   4.522780   1.376632
    13  C    3.723455   4.080446   4.854166   5.733403   2.439787
    14  H    2.733023   2.236538   4.573642   4.781997   2.136051
    15  O    4.211402   5.077018   4.752097   5.992931   2.838423
    16  C    4.973661   4.845520   6.295190   7.042284   3.804197
    17  C    5.794486   5.385917   7.168328   7.852064   4.693415
    18  C    5.718152   5.559031   7.041031   7.748063   4.619281
    19  O    5.670278   5.321762   6.928207   7.628910   4.618356
    20  C    7.090752   6.455534   8.557938   9.167360   6.041297
    21  C    6.975525   6.555126   8.393475   9.025754   5.926577
    22  H    5.539809   5.602816   6.738311   7.465270   4.494386
    23  H    4.417190   5.119175   5.006927   6.195986   3.096203
    24  H    7.800977   7.050863   9.275159   9.846487   6.796622
    25  C    7.598310   6.971164   9.089940   9.684983   6.556053
    26  F    7.845194   7.435130   9.235486   9.832298   6.858408
    27  H    8.631209   7.898900  10.159320  10.714839   7.619934
                   11         12         13         14         15
    11  H    0.000000
    12  C    2.124965   0.000000
    13  C    2.686558   1.385682   0.000000
    14  H    3.086769   1.083380   2.098587   0.000000
    15  O    2.522359   2.383224   1.370241   3.334199   0.000000
    16  C    4.162242   2.523189   1.479607   2.685665   2.425550
    17  C    5.040884   3.459688   2.518037   3.511034   3.284108
    18  C    5.007022   3.358907   2.500377   3.341099   3.287289
    19  O    4.872239   3.602737   2.802222   3.792749   3.359406
    20  C    6.441720   4.738160   3.832326   4.598110   4.581355
    21  C    6.353016   4.610691   3.759700   4.426229   4.519108
    22  H    4.848972   3.397813   2.740746   3.436945   3.386722
    23  H    2.803111   2.631845   1.650891   3.527646   0.959245
    24  H    7.185671   5.541827   4.684376   5.384708   5.372816
    25  C    6.991459   5.203901   4.311207   4.978885   5.077516
    26  F    7.291987   5.595697   4.842311   5.353892   5.534447
    27  H    8.072076   6.259733   5.393101   5.971473   6.135983
                   16         17         18         19         20
    16  C    0.000000
    17  C    1.454357   0.000000
    18  C    1.381811   2.455802   0.000000
    19  O    2.349299   1.245144   3.586591   0.000000
    20  C    2.484381   1.449864   2.818736   2.354335   0.000000
    21  C    2.387304   2.786594   1.384715   4.030156   2.381193
    22  H    2.151341   3.449275   1.082655   4.489125   3.900362
    23  H    2.544409   2.967951   3.676160   2.717359   4.334624
    24  H    3.454385   2.170979   3.901387   2.600201   1.083225
    25  C    2.832129   2.450255   2.455517   3.582139   1.362805
    26  F    3.599457   4.121536   2.342203   5.364914   3.583840
    27  H    3.913644   3.449024   3.416519   4.492392   2.146898
                   21         22         23         24         25
    21  C    0.000000
    22  H    2.137482   0.000000
    23  H    4.772422   4.013094   0.000000
    24  H    3.381183   4.983341   4.974862   0.000000
    25  C    1.405910   3.423258   5.069790   2.139595   0.000000
    26  F    1.335001   2.573880   5.919556   4.481947   2.347779
    27  H    2.151308   4.285475   6.119429   2.509712   1.083142
                   26         27
    26  F    0.000000
    27  H    2.565849   0.000000
 Stoichiometry    C11H12FNO2
 Framework group  C1[X(C11H12FNO2)]
 Deg. of freedom    75
 Full point group                 C1      NOp   1
 Largest Abelian subgroup         C1      NOp   1
 Largest concise Abelian subgroup C1      NOp   1
                         Standard orientation:                         
 ---------------------------------------------------------------------
 Center     Atomic      Atomic             Coordinates (Angstroms)
 Number     Number       Type             X           Y           Z
 ---------------------------------------------------------------------
      1          6           0        3.660909   -0.921229   -1.590249
      2          1           0        4.630718   -1.024655   -2.078527
      3          1           0        3.247692   -1.927117   -1.416882
      4          6           0        5.043119   -0.421349    0.373402
      5          1           0        5.077631   -1.434409    0.800879
      6          7           0        3.822038   -0.174745   -0.365487
      7          1           0        2.994585   -0.386765   -2.270950
      8          1           0        5.126792    0.297912    1.189770
      9          1           0        5.905906   -0.291600   -0.283727
     10          6           0        2.704801    0.171465    0.356118
     11          1           0        2.905313    0.658441    1.302204
     12          6           0        1.398655   -0.006901   -0.040471
     13          6           0        0.300994    0.431161    0.682964
     14          1           0        1.178917   -0.515635   -0.971393
     15          8           0        0.482581    0.990440    1.920620
     16          6           0       -1.097805    0.211427    0.253643
     17          6           0       -1.783265    1.292045   -0.437418
     18          6           0       -1.769451   -0.962872    0.535272
     19          8           0       -1.227605    2.393218   -0.607835
     20          6           0       -3.142959    1.051384   -0.879480
     21          6           0       -3.073750   -1.119144    0.097299
     22          1           0       -1.285177   -1.770211    1.069897
     23          1           0        0.379072    1.854139    1.516317
     24          1           0       -3.637594    1.849955   -1.418922
     25          6           0       -3.772040   -0.128195   -0.614735
     26          9           0       -3.704865   -2.268591    0.347687
     27          1           0       -4.789384   -0.325542   -0.929794
 ---------------------------------------------------------------------
 Rotational constants (GHZ):      1.1244199      0.2673782      0.2480624
 Standard basis: 6-311++G(d,p) (5D, 7F)
 There are   429 symmetry adapted cartesian basis functions of A   symmetry.
 There are   414 symmetry adapted basis functions of A   symmetry.
   414 basis functions,   648 primitive gaussians,   429 cartesian basis functions
    55 alpha electrons       55 beta electrons
       nuclear repulsion energy       939.4587199102 Hartrees.
 NAtoms=   27 NActive=   27 NUniq=   27 SFac= 1.00D+00 NAtFMM=   60 NAOKFM=F Big=F
 Integral buffers will be    131072 words long.
 Raffenetti 1 integral format.
 Two-electron integral symmetry is turned on.
 Nuclear repulsion after empirical dispersion term =      939.4428898375 Hartrees.
 ------------------------------------------------------------------------------
 Polarizable Continuum Model (PCM)
 =================================
 Model                : PCM (using non-symmetric T matrix).
 Atomic radii         : UFF (Universal Force Field).
 Polarization charges : Total charges.
 Charge compensation  : None.
 Solution method      : On-the-fly selection.
 Cavity type          : Scaled VdW (van der Waals Surface) (Alpha=1.100).
 Cavity algorithm     : GePol (No added spheres)
                        Default sphere list used, NSphG=   27.
                        Lebedev-Laikov grids with approx.  5.0 points / Ang**2.
                        Smoothing algorithm: Karplus/York (Gamma=1.0000).
                        Polarization charges: spherical gaussians, with
                                              point-specific exponents (IZeta= 3).
                        Self-potential: point-specific (ISelfS= 7).
                        Self-field    : sphere-specific E.n sum rule (ISelfD= 2).
 1st derivatives      : Analytical E(r).r(x)/FMM algorithm (CHGder, D1EAlg=3).
                        Cavity 1st derivative terms included.
 Solvent              : Dichloromethane, Eps=   8.930000 Eps(inf)=   2.028346
 ------------------------------------------------------------------------------
 One-electron integrals computed using PRISM.
 NBasis=   414 RedAO= T EigKep=  1.64D-06  NBF=   414
 NBsUse=   413 1.00D-06 EigRej=  5.16D-07 NBFU=   413
 ExpMin= 3.60D-02 ExpMax= 1.14D+04 ExpMxC= 1.72D+03 IAcc=3 IRadAn=         5 AccDes= 0.00D+00
 Harris functional with IExCor= 4639 and IRadAn=       5 diagonalized for initial guess.
 HarFok:  IExCor= 4639 AccDes= 0.00D+00 IRadAn=         5 IDoV= 1 UseB2=F ITyADJ=14
 ICtDFT=  3500011 ScaDFX=  1.000000  1.000000  1.000000  1.000000
 FoFCou: FMM=F IPFlag=           0 FMFlag=      100000 FMFlg1=           0
         NFxFlg=           0 DoJE=T BraDBF=F KetDBF=T FulRan=T
         wScrn=  0.000000 ICntrl=     500 IOpCl=  0 I1Cent=   200000004 NGrid=           0
         NMat0=    1 NMatS0=      1 NMatT0=    0 NMatD0=    1 NMtDS0=    0 NMtDT0=    0
 Petite list used in FoFCou.
 Requested convergence on RMS density matrix=1.00D-08 within 128 cycles.
 Requested convergence on MAX density matrix=1.00D-06.
 Requested convergence on             energy=1.00D-06.
 No special actions if energy rises.
 Inv3:  Mode=1 IEnd=    14401443.
 Iteration    1 A*A^-1 deviation from unit magnitude is 5.00D-15 for   2180.
 Iteration    1 A*A^-1 deviation from orthogonality  is 8.16D-15 for   2173    754.
 Iteration    1 A^-1*A deviation from unit magnitude is 5.66D-15 for   2180.
 Iteration    1 A^-1*A deviation from orthogonality  is 6.35D-14 for   1739   1049.
 Error on total polarization charges =  0.01337
 SCF Done:  E(RwB97XD) =  -731.309925607     A.U. after   20 cycles
            NFock= 20  Conv=0.41D-08     -V/T= 2.0037
 DoSCS=F DFT=T ScalE2(SS,OS)=  1.000000  1.000000
 ExpMin= 3.60D-02 ExpMax= 1.14D+04 ExpMxC= 1.72D+03 IAcc=3 IRadAn=         5 AccDes= 0.00D+00
 HarFok:  IExCor=  205 AccDes= 0.00D+00 IRadAn=         5 IDoV=-2 UseB2=F ITyADJ=14
 ICtDFT= 12500011 ScaDFX=  1.000000  1.000000  1.000000  1.000000
 Range of M.O.s used for correlation:    16   413
 NBasis=   414 NAE=    55 NBE=    55 NFC=    15 NFV=     0
 NROrb=    398 NOA=    40 NOB=    40 NVA=   358 NVB=   358

 **** Warning!!: The largest alpha MO coefficient is  0.13935856D+03

 Would need an additional         19383300000 words for in-memory AO integral storage.
 NEqPCM:  Using equilibrium solvation (IEInf=0, Eps=   8.9300, EpsInf=   2.0283)
 Orbital symmetries:
       Occupied  (A) (A) (A) (A) (A) (A) (A) (A) (A) (A) (A) (A)
                 (A) (A) (A) (A) (A) (A) (A) (A) (A) (A) (A) (A)
                 (A) (A) (A) (A) (A) (A) (A) (A) (A) (A) (A) (A)
                 (A) (A) (A) (A) (A) (A) (A) (A) (A) (A) (A) (A)
                 (A) (A) (A) (A) (A) (A) (A)
       Virtual   (A) (A) (A) (A) (A) (A) (A) (A) (A) (A) (A) (A)
                 (A) (A) (A) (A) (A) (A) (A) (A) (A) (A) (A) (A)
                 (A) (A) (A) (A) (A) (A) (A) (A) (A) (A) (A) (A)
                 (A) (A) (A) (A) (A) (A) (A) (A) (A) (A) (A) (A)
                 (A) (A) (A) (A) (A) (A) (A) (A) (A) (A) (A) (A)
                 (A) (A) (A) (A) (A) (A) (A) (A) (A) (A) (A) (A)
                 (A) (A) (A) (A) (A) (A) (A) (A) (A) (A) (A) (A)
                 (A) (A) (A) (A) (A) (A) (A) (A) (A) (A) (A) (A)
                 (A) (A) (A) (A) (A) (A) (A) (A) (A) (A) (A) (A)
                 (A) (A) (A) (A) (A) (A) (A) (A) (A) (A) (A) (A)
                 (A) (A) (A) (A) (A) (A) (A) (A) (A) (A) (A) (A)
                 (A) (A) (A) (A) (A) (A) (A) (A) (A) (A) (A) (A)
                 (A) (A) (A) (A) (A) (A) (A) (A) (A) (A) (A) (A)
                 (A) (A) (A) (A) (A) (A) (A) (A) (A) (A) (A) (A)
                 (A) (A) (A) (A) (A) (A) (A) (A) (A) (A) (A) (A)
                 (A) (A) (A) (A) (A) (A) (A) (A) (A) (A) (A) (A)
                 (A) (A) (A) (A) (A) (A) (A) (A) (A) (A) (A) (A)
                 (A) (A) (A) (A) (A) (A) (A) (A) (A) (A) (A) (A)
                 (A) (A) (A) (A) (A) (A) (A) (A) (A) (A) (A) (A)
                 (A) (A) (A) (A) (A) (A) (A) (A) (A) (A) (A) (A)
                 (A) (A) (A) (A) (A) (A) (A) (A) (A) (A) (A) (A)
                 (A) (A) (A) (A) (A) (A) (A) (A) (A) (A) (A) (A)
                 (A) (A) (A) (A) (A) (A) (A) (A) (A) (A) (A) (A)
                 (A) (A) (A) (A) (A) (A) (A) (A) (A) (A) (A) (A)
                 (A) (A) (A) (A) (A) (A) (A) (A) (A) (A) (A) (A)
                 (A) (A) (A) (A) (A) (A) (A) (A) (A) (A) (A) (A)
                 (A) (A) (A) (A) (A) (A) (A) (A) (A) (A) (A) (A)
                 (A) (A) (A) (A) (A) (A) (A) (A) (A) (A) (A) (A)
                 (A) (A) (A) (A) (A) (A) (A) (A) (A) (A) (A) (A)
                 (A) (A) (A) (A) (A) (A) (A) (A) (A) (A)
     8 initial guesses have been made.
 Convergence on wavefunction:    0.000001000000000
 Iteration     1 Dimension     8 NMult     0 NNew      8
 CISAX will form     8 AO SS matrices at one time.
 Iteration     2 Dimension    12 NMult     8 NNew      4
 Iteration     3 Dimension    16 NMult    12 NNew      4
 Iteration     4 Dimension    20 NMult    16 NNew      4
 Iteration     5 Dimension    24 NMult    20 NNew      4
 Iteration     6 Dimension    28 NMult    24 NNew      4
 Iteration     7 Dimension    32 NMult    28 NNew      4
 Iteration     8 Dimension    36 NMult    32 NNew      4
 Iteration     9 Dimension    40 NMult    36 NNew      4
 Iteration    10 Dimension    44 NMult    40 NNew      4
 ***********************************************************************
 Excited states from <AA,BB:AA,BB> singles matrix:
 ***********************************************************************
 
 Ground to excited state transition densities written to RWF  633
 Ground to excited state transition electric dipole moments (Au):
       state          X           Y           Z        Dip. S.      Osc.
         1        -0.0144      0.0004     -0.0025      0.0002      0.0000
 Ground to excited state transition velocity dipole moments (Au):
       state          X           Y           Z        Dip. S.      Osc.
         1         0.0009      0.0004     -0.0025      0.0000      0.0001
 Ground to excited state transition magnetic dipole moments (Au):
       state          X           Y           Z
         1         0.0969     -0.0057     -0.0234
 Ground to excited state transition velocity quadrupole moments (Au):
       state          XX          YY          ZZ          XY          XZ          YZ
         1         0.0091     -0.0034     -0.0016     -0.0006      0.0053     -0.0014
 <0|del|b> * <b|rxdel|0> + <0|del|b> * <b|delr+rdel|0>
 Rotatory Strengths (R) in cgs (10**-40 erg-esu-cm/Gauss)
       state          XX          YY          ZZ    R(velocity)    E-M Angle
         1         0.3673      0.9801      0.6188      0.6554       56.80
 1/2[<0|r|b>*<b|rxdel|0> + (<0|rxdel|b>*<b|r|0>)*]
 Rotatory Strengths (R) in cgs (10**-40 erg-esu-cm/Gauss)
       state          XX          YY          ZZ     R(length)
         1         0.9894      0.0017     -0.0409      0.3167
  1/2[<0|del|b>*<b|r|0> + (<0|r|b>*<b|del|0>)*] (Au)
       state          X           Y           Z        Dip. S.   Osc.(frdel)
         1         0.0000      0.0000      0.0000      0.0000      0.0000

 Excitation energies and oscillator strengths:
 
 Excited State   1:      Singlet-A      1.4230 eV  871.26 nm  f=0.0000  <S**2>=0.000
      55 -> 56         0.69069
 This state for optimization and/or second-order correction.
 Total Energy, E(TD-HF/TD-KS) =  -731.257629813    
 Copying the excited state density for this state as the 1-particle RhoCI density.
 SavETr:  write IOETrn=   770 NScale= 10 NData=  16 NLR=1 NState=    1 LETran=      28.
          IDoAtm=111111111111111111111111111
 NEqPCM:  Using equilibrium solvation (IEInf=0, Eps=   8.9300, EpsInf=   2.0283)
          Differentiating once with respect to electric field.
                with respect to dipole field.
          Differentiating once with respect to nuclear coordinates.
          There are     1 degrees of freedom in the 1st order CPHF.  IDoFFX=0 NUNeed=     1.
 LinEq1:  Iter=  0 NonCon=     1 RMS=6.51D-03 Max=1.69D-01 NDo=     1
 AX will form     1 AO Fock derivatives at one time.
 LinEq1:  Iter=  1 NonCon=     1 RMS=2.20D-03 Max=6.75D-02 NDo=     1
 LinEq1:  Iter=  2 NonCon=     1 RMS=1.80D-03 Max=1.10D-01 NDo=     1
 LinEq1:  Iter=  3 NonCon=     1 RMS=6.73D-04 Max=3.41D-02 NDo=     1
 LinEq1:  Iter=  4 NonCon=     1 RMS=3.26D-04 Max=9.29D-03 NDo=     1
 LinEq1:  Iter=  5 NonCon=     1 RMS=1.35D-04 Max=5.60D-03 NDo=     1
 LinEq1:  Iter=  6 NonCon=     1 RMS=7.45D-05 Max=3.94D-03 NDo=     1
 LinEq1:  Iter=  7 NonCon=     1 RMS=3.92D-05 Max=2.83D-03 NDo=     1
 LinEq1:  Iter=  8 NonCon=     1 RMS=2.10D-05 Max=1.32D-03 NDo=     1
 LinEq1:  Iter=  9 NonCon=     1 RMS=1.16D-05 Max=5.26D-04 NDo=     1
 LinEq1:  Iter= 10 NonCon=     1 RMS=5.59D-06 Max=2.15D-04 NDo=     1
 LinEq1:  Iter= 11 NonCon=     1 RMS=2.99D-06 Max=6.82D-05 NDo=     1
 LinEq1:  Iter= 12 NonCon=     1 RMS=1.66D-06 Max=1.06D-04 NDo=     1
 LinEq1:  Iter= 13 NonCon=     1 RMS=7.93D-07 Max=1.32D-05 NDo=     1
 LinEq1:  Iter= 14 NonCon=     1 RMS=3.54D-07 Max=1.14D-05 NDo=     1
 LinEq1:  Iter= 15 NonCon=     1 RMS=1.69D-07 Max=3.41D-06 NDo=     1
 LinEq1:  Iter= 16 NonCon=     1 RMS=7.48D-08 Max=2.29D-06 NDo=     1
 LinEq1:  Iter= 17 NonCon=     1 RMS=3.57D-08 Max=5.00D-07 NDo=     1
 LinEq1:  Iter= 18 NonCon=     1 RMS=1.36D-08 Max=4.44D-07 NDo=     1
 LinEq1:  Iter= 19 NonCon=     1 RMS=4.62D-09 Max=1.37D-07 NDo=     1
 LinEq1:  Iter= 20 NonCon=     1 RMS=2.61D-09 Max=1.01D-07 NDo=     1
 LinEq1:  Iter= 21 NonCon=     1 RMS=8.47D-10 Max=3.49D-08 NDo=     1
 LinEq1:  Iter= 22 NonCon=     1 RMS=2.94D-10 Max=8.63D-09 NDo=     1
 LinEq1:  Iter= 23 NonCon=     1 RMS=1.74D-10 Max=4.77D-09 NDo=     1
 LinEq1:  Iter= 24 NonCon=     1 RMS=6.45D-11 Max=1.96D-09 NDo=     1
 LinEq1:  Iter= 25 NonCon=     0 RMS=3.21D-11 Max=9.73D-10 NDo=     1
 Linear equations converged to 1.000D-10 1.000D-09 after    25 iterations.
 End of Minotr F.D. properties file   721 does not exist.
 End of Minotr F.D. properties file   722 does not exist.
 End of Minotr F.D. properties file   788 does not exist.

 **********************************************************************

            Population analysis using the SCF density.

 **********************************************************************

 Orbital symmetries:
       Occupied  (A) (A) (A) (A) (A) (A) (A) (A) (A) (A) (A) (A)
                 (A) (A) (A) (A) (A) (A) (A) (A) (A) (A) (A) (A)
                 (A) (A) (A) (A) (A) (A) (A) (A) (A) (A) (A) (A)
                 (A) (A) (A) (A) (A) (A) (A) (A) (A) (A) (A) (A)
                 (A) (A) (A) (A) (A) (A) (A)
       Virtual   (A) (A) (A) (A) (A) (A) (A) (A) (A) (A) (A) (A)
                 (A) (A) (A) (A) (A) (A) (A) (A) (A) (A) (A) (A)
                 (A) (A) (A) (A) (A) (A) (A) (A) (A) (A) (A) (A)
                 (A) (A) (A) (A) (A) (A) (A) (A) (A) (A) (A) (A)
                 (A) (A) (A) (A) (A) (A) (A) (A) (A) (A) (A) (A)
                 (A) (A) (A) (A) (A) (A) (A) (A) (A) (A) (A) (A)
                 (A) (A) (A) (A) (A) (A) (A) (A) (A) (A) (A) (A)
                 (A) (A) (A) (A) (A) (A) (A) (A) (A) (A) (A) (A)
                 (A) (A) (A) (A) (A) (A) (A) (A) (A) (A) (A) (A)
                 (A) (A) (A) (A) (A) (A) (A) (A) (A) (A) (A) (A)
                 (A) (A) (A) (A) (A) (A) (A) (A) (A) (A) (A) (A)
                 (A) (A) (A) (A) (A) (A) (A) (A) (A) (A) (A) (A)
                 (A) (A) (A) (A) (A) (A) (A) (A) (A) (A) (A) (A)
                 (A) (A) (A) (A) (A) (A) (A) (A) (A) (A) (A) (A)
                 (A) (A) (A) (A) (A) (A) (A) (A) (A) (A) (A) (A)
                 (A) (A) (A) (A) (A) (A) (A) (A) (A) (A) (A) (A)
                 (A) (A) (A) (A) (A) (A) (A) (A) (A) (A) (A) (A)
                 (A) (A) (A) (A) (A) (A) (A) (A) (A) (A) (A) (A)
                 (A) (A) (A) (A) (A) (A) (A) (A) (A) (A) (A) (A)
                 (A) (A) (A) (A) (A) (A) (A) (A) (A) (A) (A) (A)
                 (A) (A) (A) (A) (A) (A) (A) (A) (A) (A) (A) (A)
                 (A) (A) (A) (A) (A) (A) (A) (A) (A) (A) (A) (A)
                 (A) (A) (A) (A) (A) (A) (A) (A) (A) (A) (A) (A)
                 (A) (A) (A) (A) (A) (A) (A) (A) (A) (A) (A) (A)
                 (A) (A) (A) (A) (A) (A) (A) (A) (A) (A) (A) (A)
                 (A) (A) (A) (A) (A) (A) (A) (A) (A) (A) (A) (A)
                 (A) (A) (A) (A) (A) (A) (A) (A) (A) (A) (A) (A)
                 (A) (A) (A) (A) (A) (A) (A) (A) (A) (A) (A) (A)
                 (A) (A) (A) (A) (A) (A) (A) (A) (A) (A) (A) (A)
                 (A) (A) (A) (A) (A) (A) (A) (A) (A) (A)
 The electronic state is 1-A.
 Alpha  occ. eigenvalues --  -24.80603 -19.30830 -19.16842 -14.53839 -10.42624
 Alpha  occ. eigenvalues --  -10.40421 -10.34377 -10.34150 -10.33924 -10.32998
 Alpha  occ. eigenvalues --  -10.32347 -10.29160 -10.28424 -10.28290 -10.26550
 Alpha  occ. eigenvalues --   -1.32673  -1.21494  -1.11664  -1.08629  -0.95146
 Alpha  occ. eigenvalues --   -0.93455  -0.87488  -0.86166  -0.83390  -0.80171
 Alpha  occ. eigenvalues --   -0.75160  -0.70487  -0.69055  -0.67746  -0.65011
 Alpha  occ. eigenvalues --   -0.64325  -0.62168  -0.60900  -0.59705  -0.57820
 Alpha  occ. eigenvalues --   -0.56728  -0.55463  -0.55394  -0.53714  -0.51716
 Alpha  occ. eigenvalues --   -0.51456  -0.51041  -0.50402  -0.49341  -0.49074
 Alpha  occ. eigenvalues --   -0.46929  -0.46048  -0.45209  -0.44102  -0.41502
 Alpha  occ. eigenvalues --   -0.39032  -0.36040  -0.33682  -0.30541  -0.24352
 Alpha virt. eigenvalues --   -0.05946   0.03621   0.04949   0.05108   0.05431
 Alpha virt. eigenvalues --    0.05753   0.06094   0.07013   0.07524   0.07896
 Alpha virt. eigenvalues --    0.08322   0.08617   0.09150   0.09841   0.10071
 Alpha virt. eigenvalues --    0.10577   0.11241   0.11926   0.12747   0.13058
 Alpha virt. eigenvalues --    0.13672   0.14357   0.14402   0.14713   0.15237
 Alpha virt. eigenvalues --    0.15873   0.16319   0.16779   0.17055   0.17475
 Alpha virt. eigenvalues --    0.17718   0.17911   0.18363   0.18473   0.18732
 Alpha virt. eigenvalues --    0.18815   0.19399   0.19965   0.20228   0.20626
 Alpha virt. eigenvalues --    0.20762   0.21243   0.21779   0.22179   0.22361
 Alpha virt. eigenvalues --    0.22960   0.23208   0.23575   0.24394   0.24513
 Alpha virt. eigenvalues --    0.24866   0.25526   0.26178   0.26543   0.27095
 Alpha virt. eigenvalues --    0.27251   0.28437   0.28683   0.28994   0.29361
 Alpha virt. eigenvalues --    0.29645   0.30324   0.30620   0.30924   0.31448
 Alpha virt. eigenvalues --    0.31947   0.32268   0.32768   0.33206   0.34116
 Alpha virt. eigenvalues --    0.34276   0.34535   0.34805   0.35616   0.36295
 Alpha virt. eigenvalues --    0.36476   0.36923   0.37506   0.38067   0.38826
 Alpha virt. eigenvalues --    0.39231   0.39903   0.40371   0.41246   0.41915
 Alpha virt. eigenvalues --    0.42109   0.43342   0.43570   0.44772   0.45882
 Alpha virt. eigenvalues --    0.46124   0.46420   0.47585   0.48331   0.49000
 Alpha virt. eigenvalues --    0.49191   0.50554   0.50752   0.51929   0.52245
 Alpha virt. eigenvalues --    0.53375   0.55149   0.56177   0.58168   0.60644
 Alpha virt. eigenvalues --    0.61085   0.62056   0.63684   0.64026   0.65866
 Alpha virt. eigenvalues --    0.65956   0.66512   0.67116   0.67873   0.68332
 Alpha virt. eigenvalues --    0.69736   0.70016   0.70800   0.71124   0.71336
 Alpha virt. eigenvalues --    0.72074   0.72420   0.73393   0.74108   0.74745
 Alpha virt. eigenvalues --    0.75959   0.76062   0.77304   0.77892   0.78692
 Alpha virt. eigenvalues --    0.79605   0.80133   0.81791   0.82087   0.82791
 Alpha virt. eigenvalues --    0.83598   0.85438   0.85833   0.87169   0.88951
 Alpha virt. eigenvalues --    0.91107   0.91722   0.92758   0.93909   0.94524
 Alpha virt. eigenvalues --    0.95726   0.96100   0.96897   0.99386   0.99456
 Alpha virt. eigenvalues --    1.00145   1.01310   1.02730   1.04658   1.05067
 Alpha virt. eigenvalues --    1.05687   1.06989   1.09749   1.10649   1.11803
 Alpha virt. eigenvalues --    1.12924   1.14124   1.14477   1.15179   1.17895
 Alpha virt. eigenvalues --    1.19356   1.20610   1.24634   1.24974   1.26805
 Alpha virt. eigenvalues --    1.28264   1.30046   1.31377   1.32638   1.35180
 Alpha virt. eigenvalues --    1.36978   1.37352   1.38945   1.40031   1.43841
 Alpha virt. eigenvalues --    1.48116   1.49007   1.51612   1.51663   1.53041
 Alpha virt. eigenvalues --    1.53281   1.54100   1.55256   1.56787   1.58512
 Alpha virt. eigenvalues --    1.59272   1.59998   1.60755   1.60911   1.63350
 Alpha virt. eigenvalues --    1.63619   1.65190   1.65621   1.67122   1.68271
 Alpha virt. eigenvalues --    1.69352   1.70280   1.71412   1.72574   1.73690
 Alpha virt. eigenvalues --    1.74711   1.75517   1.76336   1.78143   1.78347
 Alpha virt. eigenvalues --    1.79140   1.80184   1.83213   1.84309   1.85364
 Alpha virt. eigenvalues --    1.87216   1.88460   1.89765   1.90360   1.93805
 Alpha virt. eigenvalues --    1.94165   1.96713   1.99191   2.01827   2.02278
 Alpha virt. eigenvalues --    2.03603   2.04576   2.05870   2.07717   2.08844
 Alpha virt. eigenvalues --    2.09870   2.10796   2.12646   2.14924   2.16573
 Alpha virt. eigenvalues --    2.17336   2.19019   2.19655   2.19755   2.20070
 Alpha virt. eigenvalues --    2.22501   2.23489   2.26514   2.28643   2.30165
 Alpha virt. eigenvalues --    2.33555   2.35935   2.39720   2.40091   2.42223
 Alpha virt. eigenvalues --    2.44611   2.48981   2.51078   2.53417   2.54570
 Alpha virt. eigenvalues --    2.56565   2.58787   2.59939   2.62286   2.64978
 Alpha virt. eigenvalues --    2.66298   2.68112   2.70259   2.70560   2.72138
 Alpha virt. eigenvalues --    2.72259   2.76037   2.77414   2.79125   2.79643
 Alpha virt. eigenvalues --    2.81319   2.82638   2.83555   2.84185   2.85909
 Alpha virt. eigenvalues --    2.86898   2.89045   2.89768   2.92351   2.94716
 Alpha virt. eigenvalues --    2.95095   2.96108   2.98160   3.01305   3.02653
 Alpha virt. eigenvalues --    3.03644   3.05221   3.07826   3.08871   3.10169
 Alpha virt. eigenvalues --    3.12116   3.19416   3.21196   3.22640   3.25059
 Alpha virt. eigenvalues --    3.26521   3.27443   3.34615   3.36769   3.38656
 Alpha virt. eigenvalues --    3.42999   3.47639   3.48504   3.48813   3.58444
 Alpha virt. eigenvalues --    3.60917   3.61917   3.63941   3.65802   3.73598
 Alpha virt. eigenvalues --    3.76484   3.77350   3.82636   3.83544   3.85979
 Alpha virt. eigenvalues --    3.87870   3.89026   3.90209   3.90981   3.95868
 Alpha virt. eigenvalues --    3.98426   4.07841   4.10472   4.13119   4.17902
 Alpha virt. eigenvalues --    4.24930   4.28646   4.31588   4.33033   4.48327
 Alpha virt. eigenvalues --    4.92712   4.95444   4.99312   5.09216   5.23452
 Alpha virt. eigenvalues --    5.26313   5.41600   5.59160   5.72445   5.92586
 Alpha virt. eigenvalues --    6.45954   6.57655   6.90244  23.72495  23.85558
 Alpha virt. eigenvalues --   24.02701  24.03812  24.06017  24.06163  24.08945
 Alpha virt. eigenvalues --   24.12921  24.24087  24.29067  24.35042  35.62561
 Alpha virt. eigenvalues --   50.04835  50.23963  66.96695
          Condensed to atoms (all electrons):
               1          2          3          4          5          6
     1  C    5.429360   0.375077   0.419066  -0.136860   0.015159   0.273371
     2  H    0.375077   0.459594  -0.018678  -0.000547  -0.003172  -0.038409
     3  H    0.419066  -0.018678   0.468835  -0.018349   0.004607  -0.041066
     4  C   -0.136860  -0.000547  -0.018349   5.341204   0.417920   0.253345
     5  H    0.015159  -0.003172   0.004607   0.417920   0.499678  -0.017820
     6  N    0.273371  -0.038409  -0.041066   0.253345  -0.017820   6.584384
     7  H    0.390630  -0.017969  -0.041448   0.015766  -0.000490  -0.026359
     8  H    0.003044   0.002752  -0.001483   0.386936  -0.037716  -0.068382
     9  H   -0.027664   0.002187   0.002260   0.395860  -0.050838  -0.042008
    10  C   -0.160954   0.030877   0.013008  -0.227251  -0.069321   0.120868
    11  H    0.013496   0.000121  -0.001383  -0.015781   0.006618  -0.042844
    12  C    0.136595  -0.003983  -0.006293   0.025603   0.015340  -0.067399
    13  C   -0.154787  -0.003093  -0.000835  -0.049383  -0.005935  -0.029849
    14  H    0.016995  -0.000242  -0.003913   0.008606   0.002057  -0.020429
    15  O   -0.003188   0.000093   0.000389  -0.007635   0.000038  -0.002255
    16  C   -0.103240  -0.001344  -0.005882  -0.007411  -0.001159  -0.025899
    17  C   -0.010978   0.000925  -0.002082  -0.019180   0.001045  -0.011495
    18  C    0.016583   0.000091  -0.001731   0.022509  -0.001759   0.017752
    19  O    0.001640   0.000214  -0.000196   0.000019  -0.000007   0.000801
    20  C    0.000245  -0.000265  -0.000691   0.000670   0.000021   0.000169
    21  C    0.005031   0.000329   0.001621   0.002011  -0.000510   0.001477
    22  H    0.000139   0.000199  -0.001204  -0.000527  -0.000094   0.000323
    23  H    0.001239   0.000009  -0.000093   0.002177   0.000119   0.000620
    24  H    0.000043   0.000011  -0.000024  -0.000004  -0.000001   0.000044
    25  C   -0.001213  -0.000096   0.000675  -0.000172   0.000005  -0.000432
    26  F    0.000028   0.000001   0.000018   0.000000  -0.000001   0.000003
    27  H   -0.000044  -0.000001   0.000011  -0.000002   0.000000  -0.000011
               7          8          9         10         11         12
     1  C    0.390630   0.003044  -0.027664  -0.160954   0.013496   0.136595
     2  H   -0.017969   0.002752   0.002187   0.030877   0.000121  -0.003983
     3  H   -0.041448  -0.001483   0.002260   0.013008  -0.001383  -0.006293
     4  C    0.015766   0.386936   0.395860  -0.227251  -0.015781   0.025603
     5  H   -0.000490  -0.037716  -0.050838  -0.069321   0.006618   0.015340
     6  N   -0.026359  -0.068382  -0.042008   0.120868  -0.042844  -0.067399
     7  H    0.497589  -0.002326   0.000423   0.009403   0.000278  -0.025648
     8  H   -0.002326   0.506011  -0.013270   0.040736  -0.007477  -0.007414
     9  H    0.000423  -0.013270   0.513068   0.020713  -0.002140   0.010720
    10  C    0.009403   0.040736   0.020713   8.164073   0.409042  -1.187259
    11  H    0.000278  -0.007477  -0.002140   0.409042   0.418341   0.062210
    12  C   -0.025648  -0.007414   0.010720  -1.187259   0.062210  10.361548
    13  C   -0.011675   0.010220  -0.000097  -1.030494  -0.069752  -0.542974
    14  H   -0.005414  -0.001588  -0.001337  -0.077482   0.003335   0.498463
    15  O    0.000255   0.000999  -0.000163   0.024475   0.013192  -0.551719
    16  C    0.002548   0.005126  -0.001192   0.246146  -0.039412  -3.362650
    17  C   -0.001570  -0.001639  -0.001325  -0.296286   0.001985  -0.399873
    18  C    0.003729   0.003514   0.001355   0.068752  -0.017342   0.877335
    19  O   -0.000181  -0.000118  -0.000009  -0.003644   0.003204  -0.009563
    20  C   -0.000533  -0.000611   0.000077   0.026618   0.007411  -0.001496
    21  C    0.002496   0.000447   0.000200   0.191377  -0.000902   0.226887
    22  H    0.000312   0.000207  -0.000034  -0.020406  -0.000673  -0.043365
    23  H    0.000239   0.000200  -0.000210  -0.005159  -0.006718   0.017564
    24  H    0.000020  -0.000001   0.000000   0.000035   0.000091  -0.005045
    25  C   -0.000030   0.000146  -0.000032  -0.012791  -0.002840   0.120957
    26  F    0.000012   0.000000   0.000000   0.000003  -0.000029   0.001241
    27  H    0.000002   0.000001   0.000000   0.000667   0.000000  -0.000714
              13         14         15         16         17         18
     1  C   -0.154787   0.016995  -0.003188  -0.103240  -0.010978   0.016583
     2  H   -0.003093  -0.000242   0.000093  -0.001344   0.000925   0.000091
     3  H   -0.000835  -0.003913   0.000389  -0.005882  -0.002082  -0.001731
     4  C   -0.049383   0.008606  -0.007635  -0.007411  -0.019180   0.022509
     5  H   -0.005935   0.002057   0.000038  -0.001159   0.001045  -0.001759
     6  N   -0.029849  -0.020429  -0.002255  -0.025899  -0.011495   0.017752
     7  H   -0.011675  -0.005414   0.000255   0.002548  -0.001570   0.003729
     8  H    0.010220  -0.001588   0.000999   0.005126  -0.001639   0.003514
     9  H   -0.000097  -0.001337  -0.000163  -0.001192  -0.001325   0.001355
    10  C   -1.030494  -0.077482   0.024475   0.246146  -0.296286   0.068752
    11  H   -0.069752   0.003335   0.013192  -0.039412   0.001985  -0.017342
    12  C   -0.542974   0.498463  -0.551719  -3.362650  -0.399873   0.877335
    13  C   10.651573  -0.001308   0.533821  -0.113920  -2.135363  -1.788174
    14  H   -0.001308   0.462352  -0.011134  -0.074550  -0.068493   0.006355
    15  O    0.533821  -0.011134   7.828029   0.300862  -0.037704  -0.102391
    16  C   -0.113920  -0.074550   0.300862  14.681440  -1.320611  -3.314438
    17  C   -2.135363  -0.068493  -0.037704  -1.320611  17.353229  -2.489760
    18  C   -1.788174   0.006355  -0.102391  -3.314438  -2.489760  15.821215
    19  O    0.151219   0.004085  -0.017104  -0.034080   0.085126  -0.012581
    20  C    0.967196   0.047209  -0.021307  -0.614627  -4.347100   0.134332
    21  C    0.702585  -0.028387  -0.033049  -0.390947  -2.450883  -1.537971
    22  H   -0.072994  -0.001952  -0.000197   0.093956   0.128246   0.542641
    23  H    0.025026   0.000114   0.240059  -0.001946  -0.088598   0.084854
    24  H   -0.006174  -0.000059  -0.000277  -0.012469  -0.150412   0.061932
    25  C   -0.577628  -0.017118   0.009747  -0.803069   2.702169  -2.067602
    26  F    0.009682  -0.001464   0.000146   0.051098  -0.038091  -0.405804
    27  H   -0.003605  -0.000181   0.000131   0.044152   0.054368  -0.108401
              19         20         21         22         23         24
     1  C    0.001640   0.000245   0.005031   0.000139   0.001239   0.000043
     2  H    0.000214  -0.000265   0.000329   0.000199   0.000009   0.000011
     3  H   -0.000196  -0.000691   0.001621  -0.001204  -0.000093  -0.000024
     4  C    0.000019   0.000670   0.002011  -0.000527   0.002177  -0.000004
     5  H   -0.000007   0.000021  -0.000510  -0.000094   0.000119  -0.000001
     6  N    0.000801   0.000169   0.001477   0.000323   0.000620   0.000044
     7  H   -0.000181  -0.000533   0.002496   0.000312   0.000239   0.000020
     8  H   -0.000118  -0.000611   0.000447   0.000207   0.000200  -0.000001
     9  H   -0.000009   0.000077   0.000200  -0.000034  -0.000210   0.000000
    10  C   -0.003644   0.026618   0.191377  -0.020406  -0.005159   0.000035
    11  H    0.003204   0.007411  -0.000902  -0.000673  -0.006718   0.000091
    12  C   -0.009563  -0.001496   0.226887  -0.043365   0.017564  -0.005045
    13  C    0.151219   0.967196   0.702585  -0.072994   0.025026  -0.006174
    14  H    0.004085   0.047209  -0.028387  -0.001952   0.000114  -0.000059
    15  O   -0.017104  -0.021307  -0.033049  -0.000197   0.240059  -0.000277
    16  C   -0.034080  -0.614627  -0.390947   0.093956  -0.001946  -0.012469
    17  C    0.085126  -4.347100  -2.450883   0.128246  -0.088598  -0.150412
    18  C   -0.012581   0.134332  -1.537971   0.542641   0.084854   0.061932
    19  O    8.544538  -0.123679   0.015166  -0.001705   0.002090  -0.008555
    20  C   -0.123679  11.327691   1.393063  -0.013118  -0.006686   0.521912
    21  C    0.015166   1.393063   9.755632  -0.258706   0.007502   0.045345
    22  H   -0.001705  -0.013118  -0.258706   0.474096   0.000395   0.002074
    23  H    0.002090  -0.006686   0.007502   0.000395   0.387726  -0.000246
    24  H   -0.008555   0.521912   0.045345   0.002074  -0.000246   0.475456
    25  C   -0.026891  -3.019483  -1.292129  -0.073388   0.001966  -0.134479
    26  F    0.000126   0.040536   0.661213  -0.023868  -0.000050   0.000925
    27  H    0.000793  -0.040553  -0.139953  -0.002214   0.000016  -0.012748
              25         26         27
     1  C   -0.001213   0.000028  -0.000044
     2  H   -0.000096   0.000001  -0.000001
     3  H    0.000675   0.000018   0.000011
     4  C   -0.000172   0.000000  -0.000002
     5  H    0.000005  -0.000001   0.000000
     6  N   -0.000432   0.000003  -0.000011
     7  H   -0.000030   0.000012   0.000002
     8  H    0.000146   0.000000   0.000001
     9  H   -0.000032   0.000000   0.000000
    10  C   -0.012791   0.000003   0.000667
    11  H   -0.002840  -0.000029   0.000000
    12  C    0.120957   0.001241  -0.000714
    13  C   -0.577628   0.009682  -0.003605
    14  H   -0.017118  -0.001464  -0.000181
    15  O    0.009747   0.000146   0.000131
    16  C   -0.803069   0.051098   0.044152
    17  C    2.702169  -0.038091   0.054368
    18  C   -2.067602  -0.405804  -0.108401
    19  O   -0.026891   0.000126   0.000793
    20  C   -3.019483   0.040536  -0.040553
    21  C   -1.292129   0.661213  -0.139953
    22  H   -0.073388  -0.023868  -0.002214
    23  H    0.001966  -0.000050   0.000016
    24  H   -0.134479   0.000925  -0.012748
    25  C   10.749118  -0.308057   0.517730
    26  F   -0.308057   9.214078  -0.023112
    27  H    0.517730  -0.023112   0.464336
 Mulliken charges:
               1
     1  C   -0.498811
     2  H    0.215316
     3  H    0.234860
     4  C   -0.389524
     5  H    0.226216
     6  N    0.181499
     7  H    0.209940
     8  H    0.181687
     9  H    0.193457
    10  C   -0.275746
    11  H    0.267969
    12  C   -0.139067
    13  C   -0.453283
    14  H    0.265481
    15  O   -0.164109
    16  C    0.803519
    17  C   -0.455651
    18  C    0.185005
    19  O   -0.570706
    20  C   -0.277002
    21  C   -0.878944
    22  H    0.271857
    23  H    0.337793
    24  H    0.222606
    25  C    0.234938
    26  F   -0.178634
    27  H    0.249335
 Sum of Mulliken charges =   0.00000
 Mulliken charges with hydrogens summed into heavy atoms:
               1
     1  C    0.161305
     4  C    0.211836
     6  N    0.181499
    10  C   -0.007777
    12  C    0.126413
    13  C   -0.453283
    15  O    0.173684
    16  C    0.803519
    17  C   -0.455651
    18  C    0.456862
    19  O   -0.570706
    20  C   -0.054396
    21  C   -0.878944
    25  C    0.484272
    26  F   -0.178634
 Electronic spatial extent (au):  <R**2>=           4443.4803
 Charge=              0.0000 electrons
 Dipole moment (field-independent basis, Debye):
    X=             17.5787    Y=             -5.0915    Z=              0.3952  Tot=             18.3055
 Quadrupole moment (field-independent basis, Debye-Ang):
   XX=            -51.9848   YY=           -104.1299   ZZ=            -87.5161
   XY=             -5.1842   XZ=             -0.5917   YZ=              8.0058
 Traceless Quadrupole moment (field-independent basis, Debye-Ang):
   XX=             29.2255   YY=            -22.9196   ZZ=             -6.3058
   XY=             -5.1842   XZ=             -0.5917   YZ=              8.0058
 Octapole moment (field-independent basis, Debye-Ang**2):
  XXX=            255.4431  YYY=            -42.9508  ZZZ=             -4.2767  XYY=             51.8158
  XXY=             -9.5947  XXZ=            -18.0098  XZZ=             26.5004  YZZ=            -10.2259
  YYZ=             19.4338  XYZ=              5.0998
 Hexadecapole moment (field-independent basis, Debye-Ang**3):
 XXXX=          -3447.8170 YYYY=           -900.3513 ZZZZ=           -493.7006 XXXY=           -168.0435
 XXXZ=             49.7511 YYYX=             48.7859 YYYZ=             55.4437 ZZZX=            -42.4466
 ZZZY=             10.2371 XXYY=           -947.2452 XXZZ=           -755.9065 YYZZ=           -202.3597
 XXYZ=             39.6834 YYXZ=             -5.5488 ZZXY=              5.3365
 N-N= 9.394428898375D+02 E-N=-3.590052492922D+03  KE= 7.286071691328D+02
 D1PCM: PCM CHGder 1st derivatives, ID1Alg=3 FixD1E=F DoIter=F DoCFld=F I1PDM=6.
 Calling FoFJK, ICntrl=  10005127 FMM=F ISym2X=0 I1Cent= 0 IOpClX= 0 NMat=1 NMatS=1 NMatT=0.
 ***** Axes restored to original set *****
 -------------------------------------------------------------------
 Center     Atomic                   Forces (Hartrees/Bohr)
 Number     Number              X              Y              Z
 -------------------------------------------------------------------
      1        6           0.000703154    0.001715158   -0.001975170
      2        1           0.000268896   -0.000116871    0.000282796
      3        1          -0.000367196   -0.000864339   -0.000014477
      4        6          -0.002558919    0.000271867    0.002134411
      5        1           0.000193183   -0.000805324   -0.000893191
      6        7           0.004036020   -0.001648825    0.002777818
      7        1           0.000105017    0.000214313   -0.000195029
      8        1          -0.000114830    0.000155639    0.000095526
      9        1           0.000383168    0.000094891    0.000175464
     10        6           0.004031800    0.001749619   -0.004843335
     11        1          -0.000698825    0.000547368    0.000509652
     12        6          -0.012945349    0.006515307   -0.007324424
     13        6           0.015592734    0.037134148   -0.013098000
     14        1          -0.000760132   -0.000587092   -0.001532388
     15        8           0.004491512   -0.016414496   -0.008724319
     16        6          -0.012488408   -0.003535643    0.004044808
     17        6           0.002851050   -0.000009826    0.002238380
     18        6           0.006815962    0.008026478   -0.002367981
     19        8          -0.002717034   -0.002309749   -0.001163407
     20        6           0.001972473    0.002319979   -0.000441430
     21        6          -0.008419295    0.001457273    0.003278058
     22        1          -0.000022253    0.000141868    0.000089945
     23        1          -0.002141790   -0.028013377    0.029418520
     24        1           0.000662695    0.000409303    0.000278611
     25        6           0.000833255   -0.005271478   -0.002749058
     26        9           0.000497783   -0.000620996    0.000148970
     27        1          -0.000204673   -0.000555196   -0.000150747
 -------------------------------------------------------------------
 Cartesian Forces:  Max     0.037134148 RMS     0.007562529

 GradGradGradGradGradGradGradGradGradGradGradGradGradGradGradGradGradGrad
 Berny optimization.
 FormGI is forming the generalized inverse of G from B-inverse, IUseBI=4.
 Internal  Forces:  Max     0.070303138 RMS     0.007583533
 Search for a local minimum.
 Step number   1 out of a maximum of  134
 All quantities printed in internal units (Hartrees-Bohrs-Radians)
 Mixed Optimization -- RFO/linear search
 Second derivative matrix not updated -- first step.
 ITU=  0
     Eigenvalues ---    0.01036   0.01052   0.01118   0.01401   0.01567
     Eigenvalues ---    0.01666   0.01776   0.01822   0.01987   0.02031
     Eigenvalues ---    0.02085   0.02128   0.02163   0.02224   0.02238
     Eigenvalues ---    0.02278   0.02311   0.02340   0.02365   0.02398
     Eigenvalues ---    0.07304   0.07339   0.07649   0.07690   0.15994
     Eigenvalues ---    0.15994   0.15999   0.16000   0.16000   0.16000
     Eigenvalues ---    0.16000   0.16000   0.16000   0.16000   0.16000
     Eigenvalues ---    0.16000   0.21819   0.22000   0.22002   0.22348
     Eigenvalues ---    0.22789   0.23489   0.24583   0.24921   0.24945
     Eigenvalues ---    0.24975   0.24988   0.24999   0.33551   0.33671
     Eigenvalues ---    0.34552   0.34555   0.34615   0.34670   0.34731
     Eigenvalues ---    0.35589   0.35607   0.35617   0.35660   0.35675
     Eigenvalues ---    0.36401   0.37365   0.38458   0.39130   0.43406
     Eigenvalues ---    0.45988   0.47944   0.48078   0.49723   0.50153
     Eigenvalues ---    0.50930   0.51409   0.55636   0.58340   0.85057
 RFO step:  Lambda=-3.09701203D-02 EMin= 1.03570170D-02
 Linear search not attempted -- first point.
 Maximum step size (   0.300) exceeded in Quadratic search.
    -- Step size scaled by   0.787
 Iteration  1 RMS(Cart)=  0.04237215 RMS(Int)=  0.00866580
 Iteration  2 RMS(Cart)=  0.01472115 RMS(Int)=  0.00069649
 Iteration  3 RMS(Cart)=  0.00067571 RMS(Int)=  0.00004292
 Iteration  4 RMS(Cart)=  0.00000065 RMS(Int)=  0.00004291
 Variable       Old X    -DE/DX   Delta X   Delta X   Delta X     New X
                                 (Linear)    (Quad)   (Total)
    R1        2.06114  -0.00038   0.00000  -0.00078  -0.00078   2.06035
    R2        2.08094  -0.00093   0.00000  -0.00199  -0.00199   2.07895
    R3        2.72753   0.00218   0.00000   0.00407   0.00407   2.73160
    R4        2.06404   0.00008   0.00000   0.00017   0.00017   2.06421
    R5        2.07889  -0.00110   0.00000  -0.00236  -0.00236   2.07653
    R6        2.73704   0.00250   0.00000   0.00473   0.00473   2.74177
    R7        2.06214  -0.00002   0.00000  -0.00005  -0.00005   2.06208
    R8        2.06409  -0.00042   0.00000  -0.00088  -0.00088   2.06322
    R9        2.59711  -0.00365   0.00000  -0.00540  -0.00540   2.59171
   R10        2.04617   0.00032   0.00000   0.00065   0.00065   2.04682
   R11        2.60146  -0.00641   0.00000  -0.00956  -0.00956   2.59190
   R12        2.61856   0.01405   0.00000   0.02161   0.02161   2.64017
   R13        2.04729   0.00087   0.00000   0.00178   0.00178   2.04907
   R14        2.58938   0.03686   0.00000   0.05373   0.05373   2.64311
   R15        2.79605  -0.01058   0.00000  -0.02209  -0.02209   2.77397
   R16        1.81271   0.01218   0.00000   0.01633   0.01633   1.82904
   R17        2.74834   0.00170   0.00000   0.00354   0.00354   2.75187
   R18        2.61124   0.00570   0.00000   0.00893   0.00893   2.62017
   R19        2.35298   0.00342   0.00000   0.00306   0.00306   2.35604
   R20        2.73985   0.00041   0.00000   0.00066   0.00066   2.74051
   R21        2.61673  -0.00518   0.00000  -0.00787  -0.00787   2.60886
   R22        2.04592   0.00016   0.00000   0.00033   0.00033   2.04625
   R23        2.04700  -0.00014   0.00000  -0.00028  -0.00028   2.04672
   R24        2.57533  -0.00359   0.00000  -0.00536  -0.00536   2.56996
   R25        2.65678   0.00489   0.00000   0.00786   0.00786   2.66464
   R26        2.52279  -0.00027   0.00000  -0.00035  -0.00035   2.52244
   R27        2.04684  -0.00025   0.00000  -0.00051  -0.00051   2.04633
    A1        1.89390   0.00014   0.00000   0.00019   0.00019   1.89409
    A2        1.90674  -0.00025   0.00000  -0.00110  -0.00110   1.90564
    A3        1.88582  -0.00002   0.00000   0.00021   0.00021   1.88603
    A4        1.96138  -0.00028   0.00000  -0.00127  -0.00127   1.96011
    A5        1.89249  -0.00010   0.00000  -0.00030  -0.00030   1.89219
    A6        1.92182   0.00051   0.00000   0.00230   0.00230   1.92412
    A7        1.96219  -0.00062   0.00000  -0.00281  -0.00281   1.95937
    A8        1.89006   0.00018   0.00000   0.00109   0.00109   1.89115
    A9        1.89482   0.00007   0.00000  -0.00055  -0.00055   1.89427
   A10        1.91141   0.00050   0.00000   0.00250   0.00250   1.91391
   A11        1.91644  -0.00012   0.00000  -0.00070  -0.00070   1.91574
   A12        1.88727   0.00002   0.00000   0.00059   0.00059   1.88785
   A13        2.02522   0.00031   0.00000   0.00111   0.00111   2.02633
   A14        2.07725  -0.00030   0.00000  -0.00073  -0.00073   2.07651
   A15        2.04923   0.00004   0.00000   0.00032   0.00032   2.04954
   A16        2.00592  -0.00089   0.00000  -0.00344  -0.00344   2.00248
   A17        2.19865   0.00045   0.00000   0.00144   0.00144   2.20008
   A18        2.07795   0.00045   0.00000   0.00210   0.00210   2.08004
   A19        2.16545  -0.00006   0.00000  -0.00018  -0.00019   2.16526
   A20        2.09535  -0.00091   0.00000  -0.00379  -0.00380   2.09155
   A21        2.02238   0.00097   0.00000   0.00396   0.00395   2.02633
   A22        2.08934   0.00845   0.00000   0.02451   0.02442   2.11376
   A23        2.15370  -0.00530   0.00000  -0.01418  -0.01430   2.13940
   A24        2.03530  -0.00300   0.00000  -0.00775  -0.00787   2.02743
   A25        1.54330   0.07030   0.00000   0.28990   0.28990   1.83320
   A26        2.06361  -0.00400   0.00000  -0.01168  -0.01169   2.05192
   A27        2.12537   0.00373   0.00000   0.00999   0.00999   2.13536
   A28        2.09346   0.00028   0.00000   0.00188   0.00187   2.09534
   A29        2.10809  -0.00113   0.00000  -0.00324  -0.00326   2.10483
   A30        2.05279   0.00013   0.00000   0.00078   0.00077   2.05356
   A31        2.12184   0.00102   0.00000   0.00278   0.00276   2.12459
   A32        2.08206  -0.00214   0.00000  -0.00580  -0.00580   2.07626
   A33        2.11407   0.00113   0.00000   0.00318   0.00318   2.11725
   A34        2.08674   0.00102   0.00000   0.00271   0.00271   2.08945
   A35        2.04620   0.00107   0.00000   0.00445   0.00445   2.05065
   A36        2.11454  -0.00060   0.00000  -0.00256  -0.00256   2.11197
   A37        2.12240  -0.00047   0.00000  -0.00190  -0.00190   2.12050
   A38        2.15134   0.00136   0.00000   0.00373   0.00373   2.15507
   A39        2.07503   0.00001   0.00000   0.00008   0.00007   2.07511
   A40        2.05676  -0.00137   0.00000  -0.00377  -0.00377   2.05299
   A41        2.07053   0.00098   0.00000   0.00216   0.00217   2.07270
   A42        2.13502  -0.00106   0.00000  -0.00342  -0.00343   2.13159
   A43        2.07762   0.00008   0.00000   0.00127   0.00126   2.07888
    D1       -0.63668   0.00011   0.00000   0.00068   0.00068  -0.63600
    D2        3.04643   0.00001   0.00000  -0.00073  -0.00073   3.04569
    D3        1.46637  -0.00007   0.00000  -0.00065  -0.00065   1.46571
    D4       -1.13371  -0.00017   0.00000  -0.00206  -0.00206  -1.13578
    D5       -2.70512  -0.00002   0.00000  -0.00029  -0.00029  -2.70541
    D6        0.97798  -0.00012   0.00000  -0.00170  -0.00170   0.97628
    D7       -1.18767   0.00032   0.00000   0.00341   0.00341  -1.18427
    D8        1.42136   0.00032   0.00000   0.00445   0.00445   1.42581
    D9        2.99359   0.00016   0.00000   0.00215   0.00215   2.99574
   D10       -0.68056   0.00016   0.00000   0.00320   0.00320  -0.67737
   D11        0.92377  -0.00008   0.00000   0.00035   0.00035   0.92412
   D12       -2.75039  -0.00009   0.00000   0.00139   0.00139  -2.74899
   D13        3.05823  -0.00014   0.00000  -0.00256  -0.00256   3.05567
   D14       -0.12337   0.00007   0.00000   0.00038   0.00038  -0.12299
   D15        0.46548  -0.00032   0.00000  -0.00423  -0.00422   0.46125
   D16       -2.71612  -0.00011   0.00000  -0.00128  -0.00128  -2.71740
   D17       -3.06970   0.00051   0.00000   0.00725   0.00724  -3.06245
   D18        0.06993  -0.00004   0.00000  -0.00067  -0.00067   0.06926
   D19        0.03039   0.00070   0.00000   0.01019   0.01019   0.04058
   D20       -3.11317   0.00015   0.00000   0.00227   0.00228  -3.11089
   D21       -0.09075   0.00151   0.00000   0.02491   0.02499  -0.06576
   D22       -3.12310  -0.00007   0.00000  -0.00373  -0.00382  -3.12692
   D23        3.05274   0.00203   0.00000   0.03255   0.03264   3.08538
   D24        0.02039   0.00046   0.00000   0.00390   0.00383   0.02422
   D25        1.76048   0.00076   0.00000   0.00807   0.00791   1.76839
   D26       -1.48310   0.00202   0.00000   0.03424   0.03439  -1.44870
   D27       -1.70684  -0.00056   0.00000  -0.01724  -0.01741  -1.72424
   D28        1.47614  -0.00089   0.00000  -0.02257  -0.02272   1.45342
   D29        1.54087  -0.00276   0.00000  -0.04696  -0.04681   1.49407
   D30       -1.55933  -0.00309   0.00000  -0.05229  -0.05212  -1.61146
   D31       -0.05672   0.00043   0.00000   0.00851   0.00852  -0.04820
   D32        3.11723  -0.00023   0.00000  -0.00244  -0.00240   3.11483
   D33        3.04427   0.00084   0.00000   0.01395   0.01392   3.05819
   D34       -0.06497   0.00018   0.00000   0.00300   0.00300  -0.06196
   D35       -3.13057  -0.00012   0.00000  -0.00023  -0.00019  -3.13077
   D36       -0.01594   0.00018   0.00000   0.00395   0.00398  -0.01196
   D37        0.05310  -0.00035   0.00000  -0.00533  -0.00533   0.04776
   D38       -3.11546  -0.00005   0.00000  -0.00115  -0.00116  -3.11662
   D39       -3.11121  -0.00004   0.00000  -0.00071  -0.00071  -3.11192
   D40        0.03987   0.00007   0.00000   0.00120   0.00121   0.04108
   D41        0.06301  -0.00067   0.00000  -0.01163  -0.01164   0.05137
   D42       -3.06909  -0.00056   0.00000  -0.00972  -0.00972  -3.07881
   D43       -0.01505   0.00021   0.00000   0.00339   0.00340  -0.01165
   D44        3.11557   0.00051   0.00000   0.00754   0.00755   3.12311
   D45       -3.13012  -0.00009   0.00000  -0.00073  -0.00072  -3.13083
   D46        0.00051   0.00021   0.00000   0.00342   0.00343   0.00393
   D47       -0.00321  -0.00020   0.00000  -0.00319  -0.00320  -0.00640
   D48        3.13398  -0.00017   0.00000  -0.00260  -0.00260   3.13138
   D49       -3.13489  -0.00009   0.00000  -0.00123  -0.00124  -3.13613
   D50        0.00230  -0.00006   0.00000  -0.00064  -0.00064   0.00166
   D51       -0.01060   0.00007   0.00000   0.00098   0.00097  -0.00963
   D52        3.13525   0.00005   0.00000   0.00042   0.00041   3.13566
   D53       -3.14132  -0.00023   0.00000  -0.00316  -0.00315   3.13871
   D54        0.00452  -0.00025   0.00000  -0.00371  -0.00371   0.00081
         Item               Value     Threshold  Converged?
 Maximum Force            0.070303     0.000450     NO 
 RMS     Force            0.007584     0.000300     NO 
 Maximum Displacement     0.439377     0.001800     NO 
 RMS     Displacement     0.053555     0.001200     NO 
 Predicted change in Energy=-1.632662D-02
 GradGradGradGradGradGradGradGradGradGradGradGradGradGradGradGradGradGrad

                          Input orientation:                          
 ---------------------------------------------------------------------
 Center     Atomic      Atomic             Coordinates (Angstroms)
 Number     Number       Type             X           Y           Z
 ---------------------------------------------------------------------
      1          6           0       -3.650251    0.956372   -1.586781
      2          1           0       -4.617526    1.065103   -2.077996
      3          1           0       -3.244629    1.959437   -1.387727
      4          6           0       -5.044969    0.405213    0.360230
      5          1           0       -5.086753    1.409111    0.805110
      6          7           0       -3.815918    0.181690   -0.377696
      7          1           0       -2.976412    0.442169   -2.275789
      8          1           0       -5.130540   -0.329853    1.162159
      9          1           0       -5.902194    0.284497   -0.305079
     10          6           0       -2.703370   -0.174326    0.340938
     11          1           0       -2.910577   -0.680240    1.275973
     12          6           0       -1.400101    0.017242   -0.041176
     13          6           0       -0.296911   -0.443206    0.681943
     14          1           0       -1.179976    0.547581   -0.960980
     15          8           0       -0.457099   -1.081458    1.916147
     16          6           0        1.085986   -0.204020    0.251624
     17          6           0        1.768383   -1.280574   -0.452625
     18          6           0        1.755870    0.977504    0.530442
     19          8           0        1.206074   -2.379002   -0.630600
     20          6           0        3.122851   -1.034379   -0.908611
     21          6           0        3.051775    1.133365    0.080718
     22          1           0        1.275520    1.782175    1.072922
     23          1           0       -0.362418   -2.025498    1.724772
     24          1           0        3.617700   -1.826703   -1.456700
     25          6           0        3.748121    0.143820   -0.643294
     26          9           0        3.688013    2.279707    0.331402
     27          1           0        4.762073    0.343370   -0.966853
 ---------------------------------------------------------------------
                    Distance matrix (angstroms):
                    1          2          3          4          5
     1  C    0.000000
     2  H    1.090292   0.000000
     3  H    1.100133   1.777963   0.000000
     4  C    2.457614   2.561856   2.951642   0.000000
     5  H    2.826598   2.941227   2.916302   1.098852   0.000000
     6  N    1.445498   2.077021   2.122951   1.450884   2.126174
     7  H    1.092335   1.766473   1.778398   3.350953   3.857520
     8  H    3.376729   3.564784   3.911448   1.091208   1.775781
     9  H    2.676832   2.324425   3.322681   1.091807   1.778263
    10  C    2.427172   3.324367   2.798962   2.412328   2.898836
    11  H    3.379493   4.148373   3.764941   2.563674   3.053333
    12  C    2.886872   3.949490   2.997933   3.687372   4.030497
    13  C    4.283785   5.344154   4.329581   4.833981   5.137007
    14  H    2.580890   3.651343   2.537369   4.087057   4.373125
    15  O    5.159406   6.153865   5.285163   5.067507   5.373178
    16  C    5.211351   6.290298   5.110992   6.162108   6.404003
    17  C    5.970915   6.994560   6.041720   7.065719   7.470556
    18  C    5.805964   6.887075   5.445048   6.826998   6.861721
    19  O    5.968492   6.918897   6.261314   6.914415   7.484033
    20  C    7.092102   8.104858   7.052467   8.390213   8.735278
    21  C    6.908620   7.967615   6.517932   8.134224   8.175355
    22  H    5.658550   6.720898   5.149559   6.507883   6.378826
    23  H    5.537849   6.489900   5.820180   5.449460   5.912839
    24  H    7.783671   8.750286   7.837804   9.128227   9.557918
    25  C    7.502420   8.537633   7.262864   8.854029   9.041783
    26  F    7.699400   8.732837   7.149790   8.931940   8.830565
    27  H    8.457379   9.472720   8.179003   9.896618  10.063550
                    6          7          8          9         10
     6  N    0.000000
     7  H    2.091740   0.000000
     8  H    2.088315   4.129863   0.000000
     9  H    2.090070   3.531113   1.767954   0.000000
    10  C    1.371476   2.702198   2.567051   3.295502   0.000000
    11  H    2.072965   3.725473   2.250324   3.518553   1.083132
    12  C    2.444680   2.767456   3.935056   4.517733   1.371575
    13  C    3.727833   4.088006   4.858748   5.737854   2.445327
    14  H    2.724387   2.228680   4.569964   4.774805   2.129993
    15  O    4.258981   5.122568   4.793168   6.037279   2.889620
[...]
 Alpha virt. eigenvalues --    0.08488   0.08714   0.09375   0.10369   0.11230
 Alpha virt. eigenvalues --    0.11431   0.11850   0.12364   0.13523   0.13833
 Alpha virt. eigenvalues --    0.14225   0.14868   0.14983   0.15720   0.15989
 Alpha virt. eigenvalues --    0.15997   0.16450   0.16902   0.17033   0.17348
 Alpha virt. eigenvalues --    0.18193   0.18579   0.18874   0.19006   0.19471
 Alpha virt. eigenvalues --    0.19656   0.20092   0.20512   0.20583   0.21476
 Alpha virt. eigenvalues --    0.21536   0.21947   0.22073   0.22390   0.22689
 Alpha virt. eigenvalues --    0.24133   0.24425   0.24653   0.25254   0.25672
 Alpha virt. eigenvalues --    0.26078   0.26500   0.26803   0.26999   0.27245
 Alpha virt. eigenvalues --    0.27829   0.28287   0.28779   0.29388   0.29488
 Alpha virt. eigenvalues --    0.30520   0.31479   0.32023   0.32724   0.33035
 Alpha virt. eigenvalues --    0.33217   0.34077   0.34836   0.35249   0.35422
 Alpha virt. eigenvalues --    0.35685   0.36548   0.37011   0.37528   0.37931
 Alpha virt. eigenvalues --    0.38337   0.38612   0.39037   0.39506   0.39887
 Alpha virt. eigenvalues --    0.40617   0.41767   0.41931   0.42521   0.43099
 Alpha virt. eigenvalues --    0.44154   0.44303   0.45960   0.46916   0.47328
 Alpha virt. eigenvalues --    0.48187   0.49604   0.49985   0.51588   0.51819
 Alpha virt. eigenvalues --    0.52848   0.52932   0.55247   0.55345   0.56546
 Alpha virt. eigenvalues --    0.57383   0.58325   0.60939   0.61238   0.62230
 Alpha virt. eigenvalues --    0.62371   0.63561   0.65450   0.65521   0.66073
 Alpha virt. eigenvalues --    0.66736   0.67857   0.68614   0.69186   0.69340
 Alpha virt. eigenvalues --    0.69630   0.70946   0.71119   0.71782   0.72478
 Alpha virt. eigenvalues --    0.72942   0.73856   0.73893   0.75364   0.76619
 Alpha virt. eigenvalues --    0.77259   0.78008   0.78541   0.79929   0.80469
 Alpha virt. eigenvalues --    0.83046   0.83473   0.85306   0.86451   0.86965
 Alpha virt. eigenvalues --    0.88550   0.89323   0.92362   0.93476   0.93878
 Alpha virt. eigenvalues --    0.94445   0.95085   0.97015   0.98081   0.98967
 Alpha virt. eigenvalues --    0.99625   1.01388   1.02101   1.04300   1.04623
 Alpha virt. eigenvalues --    1.04984   1.06374   1.06574   1.07304   1.10618
 Alpha virt. eigenvalues --    1.11069   1.12179   1.12442   1.12624   1.14474
 Alpha virt. eigenvalues --    1.15168   1.17353   1.18537   1.19057   1.20240
 Alpha virt. eigenvalues --    1.20694   1.23473   1.25205   1.29469   1.30192
 Alpha virt. eigenvalues --    1.30987   1.32782   1.33477   1.36342   1.37292
 Alpha virt. eigenvalues --    1.38932   1.43429   1.44018   1.46788   1.50980
 Alpha virt. eigenvalues --    1.51506   1.52073   1.52317   1.52450   1.54175
 Alpha virt. eigenvalues --    1.54913   1.56842   1.57855   1.58155   1.59363
 Alpha virt. eigenvalues --    1.60974   1.62805   1.63195   1.64589   1.64871
 Alpha virt. eigenvalues --    1.66884   1.66949   1.68121   1.68258   1.68552
 Alpha virt. eigenvalues --    1.69440   1.72654   1.74338   1.75764   1.76904
 Alpha virt. eigenvalues --    1.77946   1.79613   1.80903   1.81928   1.82851
 Alpha virt. eigenvalues --    1.83334   1.84611   1.85683   1.87188   1.89557
 Alpha virt. eigenvalues --    1.91677   1.94461   1.95026   1.95265   1.96121
 Alpha virt. eigenvalues --    1.99207   1.99900   2.02816   2.03664   2.05138
 Alpha virt. eigenvalues --    2.05968   2.06812   2.08895   2.09660   2.11244
 Alpha virt. eigenvalues --    2.12650   2.13338   2.14926   2.17188   2.19792
 Alpha virt. eigenvalues --    2.20127   2.21204   2.23835   2.24762   2.25461
 Alpha virt. eigenvalues --    2.29845   2.31014   2.33455   2.37218   2.38224
 Alpha virt. eigenvalues --    2.38688   2.41380   2.45426   2.47347   2.50065
 Alpha virt. eigenvalues --    2.51086   2.54126   2.55401   2.55461   2.58601
 Alpha virt. eigenvalues --    2.59416   2.63354   2.63828   2.66531   2.68953
 Alpha virt. eigenvalues --    2.70594   2.71338   2.71805   2.72910   2.75899
 Alpha virt. eigenvalues --    2.77211   2.79274   2.80014   2.80943   2.81169
 Alpha virt. eigenvalues --    2.83368   2.84236   2.84425   2.85299   2.86705
 Alpha virt. eigenvalues --    2.90078   2.90438   2.92601   2.94635   2.95007
 Alpha virt. eigenvalues --    2.95876   2.98118   3.01902   3.03846   3.06047
 Alpha virt. eigenvalues --    3.10580   3.13151   3.16485   3.16973   3.19566
 Alpha virt. eigenvalues --    3.19757   3.23041   3.24835   3.27016   3.28718
 Alpha virt. eigenvalues --    3.31573   3.34451   3.39885   3.41810   3.43830
 Alpha virt. eigenvalues --    3.51604   3.52317   3.58197   3.58849   3.64533
 Alpha virt. eigenvalues --    3.68692   3.71181   3.75593   3.76694   3.80725
 Alpha virt. eigenvalues --    3.80985   3.82520   3.85975   3.87421   3.87915
 Alpha virt. eigenvalues --    3.94295   3.95345   3.96323   4.01458   4.08139
 Alpha virt. eigenvalues --    4.08430   4.11454   4.17653   4.23225   4.28582
 Alpha virt. eigenvalues --    4.31683   4.36709   4.67259   4.90223   4.97462
 Alpha virt. eigenvalues --    4.97811   5.10900   5.17467   5.19838   5.39593
 Alpha virt. eigenvalues --    5.61351   5.88172   5.92352   6.44151   6.58488
 Alpha virt. eigenvalues --    6.88873  23.72357  23.90463  23.99783  24.04630
 Alpha virt. eigenvalues --   24.06220  24.08132  24.08416  24.11817  24.21102
 Alpha virt. eigenvalues --   24.23471  24.29258  35.69253  50.09730  50.21127
 Alpha virt. eigenvalues --   66.95701
          Condensed to atoms (all electrons):
               1          2          3          4          5          6
     1  C    5.251988   0.385318   0.414116  -0.063265   0.000644   0.236215
     2  H    0.385318   0.440313  -0.015746   0.003695  -0.005117  -0.042876
     3  H    0.414116  -0.015746   0.513659  -0.000625  -0.001230  -0.036684
     4  C   -0.063265   0.003695  -0.000625   5.194733   0.404128   0.253149
     5  H    0.000644  -0.005117  -0.001230   0.404128   0.525995  -0.039406
     6  N    0.236215  -0.042876  -0.036684   0.253149  -0.039406   6.748502
     7  H    0.414156  -0.015729  -0.053399  -0.000616   0.002326  -0.036665
     8  H   -0.004228   0.002847  -0.001713   0.403791  -0.026961  -0.100006
     9  H    0.000638  -0.005088   0.002329   0.404196  -0.057925  -0.039438
    10  C   -0.034597   0.016881   0.009334  -0.181170  -0.024050   0.278918
    11  H    0.007812  -0.000238   0.000242  -0.035643   0.003066  -0.047473
    12  C    0.119338   0.026644  -0.021766  -0.036388   0.009762  -0.225916
    13  C   -0.121001  -0.014246  -0.002608  -0.026778   0.000806  -0.024240
    14  H   -0.005296  -0.000171  -0.004816  -0.000457   0.000906  -0.012266
    15  O    0.002160   0.000211   0.000403   0.000515   0.000069   0.000949
    16  C   -0.140558  -0.002913  -0.009139   0.023966   0.000267  -0.024013
    17  C   -0.003362   0.001004  -0.002680   0.007497  -0.000130   0.002873
    18  C    0.021513  -0.004674   0.004333  -0.015210   0.000607  -0.030030
    19  O    0.000070   0.000000   0.000009   0.000372   0.000008  -0.000104
    20  C    0.009553   0.000509  -0.000825   0.000070   0.000002   0.001020
    21  C   -0.008410  -0.000483   0.001464   0.000810  -0.000020   0.003920
    22  H    0.009541   0.000524  -0.000469  -0.002899  -0.000026  -0.012338
    23  H   -0.000434  -0.000111  -0.000044  -0.000041   0.000036  -0.000400
    24  H    0.000085   0.000005  -0.000014   0.000012   0.000000  -0.000017
    25  C   -0.009595  -0.000513  -0.000106   0.000205   0.000006   0.002429
    26  F   -0.000157  -0.000008  -0.000088   0.000000   0.000000   0.000007
    27  H   -0.000193  -0.000010   0.000008   0.000006   0.000000   0.000019
               7          8          9         10         11         12
     1  C    0.414156  -0.004228   0.000638  -0.034597   0.007812   0.119338
     2  H   -0.015729   0.002847  -0.005088   0.016881  -0.000238   0.026644
     3  H   -0.053399  -0.001713   0.002329   0.009334   0.000242  -0.021766
     4  C   -0.000616   0.403791   0.404196  -0.181170  -0.035643  -0.036388
     5  H    0.002326  -0.026961  -0.057925  -0.024050   0.003066   0.009762
     6  N   -0.036665  -0.100006  -0.039438   0.278918  -0.047473  -0.225916
     7  H    0.513581  -0.001723  -0.001234   0.009114   0.000252  -0.021718
     8  H   -0.001723   0.528001  -0.026972   0.051127  -0.014202   0.011046
     9  H   -0.001234  -0.026972   0.526000  -0.024073   0.003067   0.009785
    10  C    0.009114   0.051127  -0.024073   9.845386   0.378711   0.874982
    11  H    0.000252  -0.014202   0.003067   0.378711   0.436249   0.076450
    12  C   -0.021718   0.011046   0.009785   0.874982   0.076450   9.543748
    13  C   -0.002504   0.017018   0.000826  -1.974718  -0.001237   1.257211
    14  H   -0.004825  -0.001150   0.000900   0.200021   0.003722   0.482191
    15  O    0.000401  -0.000287   0.000068  -0.100106  -0.001959  -0.385530
    16  C   -0.009130   0.005037   0.000275  -1.534148  -0.078576  -2.492408
    17  C   -0.002672   0.001661  -0.000129  -0.317431  -0.023883  -1.773712
    18  C    0.004345  -0.004058   0.000606  -1.827185   0.021402  -0.888159
    19  O    0.000009  -0.000156   0.000008   0.019146   0.001500   0.021248
    20  C   -0.000827  -0.000243   0.000001   0.128122   0.010572   0.813955
    21  C    0.001457   0.000028  -0.000020   0.085932  -0.003172  -0.348878
    22  H   -0.000471  -0.000036  -0.000026  -0.164865   0.002078  -0.042533
    23  H   -0.000044   0.000103   0.000036  -0.026774   0.002215   0.047875
    24  H   -0.000014  -0.000004   0.000000   0.000326   0.000032   0.004086
    25  C   -0.000105   0.000116   0.000006  -0.152833  -0.005374  -0.607887
    26  F   -0.000088  -0.000001   0.000000  -0.001714  -0.000068   0.001213
    27  H    0.000008   0.000002   0.000000  -0.002524  -0.000101  -0.016230
              13         14         15         16         17         18
     1  C   -0.121001  -0.005296   0.002160  -0.140558  -0.003362   0.021513
     2  H   -0.014246  -0.000171   0.000211  -0.002913   0.001004  -0.004674
     3  H   -0.002608  -0.004816   0.000403  -0.009139  -0.002680   0.004333
     4  C   -0.026778  -0.000457   0.000515   0.023966   0.007497  -0.015210
     5  H    0.000806   0.000906   0.000069   0.000267  -0.000130   0.000607
     6  N   -0.024240  -0.012266   0.000949  -0.024013   0.002873  -0.030030
     7  H   -0.002504  -0.004825   0.000401  -0.009130  -0.002672   0.004345
     8  H    0.017018  -0.001150  -0.000287   0.005037   0.001661  -0.004058
     9  H    0.000826   0.000900   0.000068   0.000275  -0.000129   0.000606
    10  C   -1.974718   0.200021  -0.100106  -1.534148  -0.317431  -1.827185
    11  H   -0.001237   0.003722  -0.001959  -0.078576  -0.023883   0.021402
    12  C    1.257211   0.482191  -0.385530  -2.492408  -1.773712  -0.888159
    13  C    8.645523  -0.012606   0.516154   1.105968  -2.225352  -0.730633
    14  H   -0.012606   0.741978  -0.024482   0.082239   0.037233  -0.629159
    15  O    0.516154  -0.024482   8.123079   0.103017  -0.138254   0.059176
    16  C    1.105968   0.082239   0.103017  17.337698   0.033116  -6.574148
    17  C   -2.225352   0.037233  -0.138254   0.033116  14.770035  -4.337902
    18  C   -0.730633  -0.629159   0.059176  -6.574148  -4.337902  22.423322
    19  O   -0.043123   0.002286   0.006157  -0.134374   0.461074  -0.019952
    20  C    0.321691   0.024303  -0.054804  -2.952877  -1.056820   0.616876
    21  C   -0.176742  -0.018564   0.011543  -1.031008   0.074585   1.094667
    22  H   -0.049445  -0.137361   0.007128  -0.478212  -0.010222   1.495707
    23  H    0.018762  -0.001473   0.208622  -0.136169  -0.039683   0.093216
    24  H    0.003482  -0.000595  -0.000424  -0.083081  -0.133439   0.049328
    25  C   -0.490351   0.116630  -0.009330   1.098267   0.888397  -2.860282
    26  F    0.011210   0.016977   0.000022   0.141704   0.003691  -0.178445
    27  H   -0.009985   0.001560  -0.000025   0.088012   0.060352  -0.150248
              19         20         21         22         23         24
     1  C    0.000070   0.009553  -0.008410   0.009541  -0.000434   0.000085
     2  H    0.000000   0.000509  -0.000483   0.000524  -0.000111   0.000005
     3  H    0.000009  -0.000825   0.001464  -0.000469  -0.000044  -0.000014
     4  C    0.000372   0.000070   0.000810  -0.002899  -0.000041   0.000012
     5  H    0.000008   0.000002  -0.000020  -0.000026   0.000036   0.000000
     6  N   -0.000104   0.001020   0.003920  -0.012338  -0.000400  -0.000017
     7  H    0.000009  -0.000827   0.001457  -0.000471  -0.000044  -0.000014
     8  H   -0.000156  -0.000243   0.000028  -0.000036   0.000103  -0.000004
     9  H    0.000008   0.000001  -0.000020  -0.000026   0.000036   0.000000
    10  C    0.019146   0.128122   0.085932  -0.164865  -0.026774   0.000326
    11  H    0.001500   0.010572  -0.003172   0.002078   0.002215   0.000032
    12  C    0.021248   0.813955  -0.348878  -0.042533   0.047875   0.004086
    13  C   -0.043123   0.321691  -0.176742  -0.049445   0.018762   0.003482
    14  H    0.002286   0.024303  -0.018564  -0.137361  -0.001473  -0.000595
    15  O    0.006157  -0.054804   0.011543   0.007128   0.208622  -0.000424
    16  C   -0.134374  -2.952877  -1.031008  -0.478212  -0.136169  -0.083081
    17  C    0.461074  -1.056820   0.074585  -0.010222  -0.039683  -0.133439
    18  C   -0.019952   0.616876   1.094667   1.495707   0.093216   0.049328
    19  O    8.447782  -0.301657  -0.019556  -0.003509   0.070190  -0.014626
    20  C   -0.301657   8.823965  -0.136579   0.029720   0.043864   0.532289
    21  C   -0.019556  -0.136579   8.625362  -0.089359   0.002921   0.044355
    22  H   -0.003509   0.029720  -0.089359   0.647795   0.003625   0.003472
    23  H    0.070190   0.043864   0.002921   0.003625   0.300873  -0.000450
    24  H   -0.014626   0.532289   0.044355   0.003472  -0.000450   0.447744
    25  C    0.022920  -0.432700  -1.740160  -0.338151   0.004642  -0.083357
    26  F    0.000124   0.014315   0.352823  -0.073461   0.000143   0.000917
    27  H    0.001897  -0.027306  -0.205856  -0.008485   0.000107  -0.010790
              25         26         27
     1  C   -0.009595  -0.000157  -0.000193
     2  H   -0.000513  -0.000008  -0.000010
     3  H   -0.000106  -0.000088   0.000008
     4  C    0.000205   0.000000   0.000006
     5  H    0.000006   0.000000   0.000000
     6  N    0.002429   0.000007   0.000019
     7  H   -0.000105  -0.000088   0.000008
     8  H    0.000116  -0.000001   0.000002
     9  H    0.000006   0.000000   0.000000
    10  C   -0.152833  -0.001714  -0.002524
    11  H   -0.005374  -0.000068  -0.000101
    12  C   -0.607887   0.001213  -0.016230
    13  C   -0.490351   0.011210  -0.009985
    14  H    0.116630   0.016977   0.001560
    15  O   -0.009330   0.000022  -0.000025
    16  C    1.098267   0.141704   0.088012
    17  C    0.888397   0.003691   0.060352
    18  C   -2.860282  -0.178445  -0.150248
    19  O    0.022920   0.000124   0.001897
    20  C   -0.432700   0.014315  -0.027306
    21  C   -1.740160   0.352823  -0.205856
    22  H   -0.338151  -0.073461  -0.008485
    23  H    0.004642   0.000143   0.000107
    24  H   -0.083357   0.000917  -0.010790
    25  C   10.201305  -0.253441   0.586631
    26  F   -0.253441   9.154818  -0.021451
    27  H    0.586631  -0.021451   0.437202
 Mulliken charges:
               1
     1  C   -0.482054
     2  H    0.229977
     3  H    0.206057
     4  C   -0.334054
     5  H    0.206237
     6  N    0.143870
     7  H    0.206114
     8  H    0.160962
     9  H    0.206163
    10  C    0.468186
    11  H    0.264556
    12  C   -0.438410
    13  C    0.006919
    14  H    0.142278
    15  O   -0.324473
    16  C    1.661186
    17  C   -0.275847
    18  C   -1.635012
    19  O   -0.517744
    20  C   -0.406189
    21  C   -0.521059
    22  H    0.212279
    23  H    0.408393
    24  H    0.240675
    25  C    0.062632
    26  F   -0.169041
    27  H    0.277401
 Sum of Mulliken charges =   0.00000
 Mulliken charges with hydrogens summed into heavy atoms:
               1
     1  C    0.160093
     4  C    0.239308
     6  N    0.143870
    10  C    0.732742
    12  C   -0.296132
    13  C    0.006919
    15  O    0.083919
    16  C    1.661186
    17  C   -0.275847
    18  C   -1.422734
    19  O   -0.517744
    20  C   -0.165514
    21  C   -0.521059
    25  C    0.340033
    26  F   -0.169041
 Electronic spatial extent (au):  <R**2>=           4477.0244
 Charge=              0.0000 electrons
 Dipole moment (field-independent basis, Debye):
    X=             11.7860    Y=             -4.7118    Z=             -0.0003  Tot=             12.6929
 Quadrupole moment (field-independent basis, Debye-Ang):
   XX=            -50.9321   YY=           -101.3789   ZZ=            -91.0578
   XY=             -0.8661   XZ=             -0.0023   YZ=              0.0007
 Traceless Quadrupole moment (field-independent basis, Debye-Ang):
   XX=             30.1909   YY=            -20.2560   ZZ=             -9.9349
   XY=             -0.8661   XZ=             -0.0023   YZ=              0.0007
 Octapole moment (field-independent basis, Debye-Ang**2):
  XXX=            167.6528  YYY=            -36.5728  ZZZ=              0.0018  XYY=             66.0537
  XXY=            -20.5953  XXZ=             -0.0164  XZZ=              7.8579  YZZ=             -4.5292
  YYZ=              0.0012  XYZ=             -0.0056
 Hexadecapole moment (field-independent basis, Debye-Ang**3):
 XXXX=          -3364.4263 YYYY=          -1287.7087 ZZZZ=           -109.8184 XXXY=             -6.4968
 XXXZ=             -0.0189 YYYX=             38.2409 YYYZ=              0.0120 ZZZX=             -0.0040
 ZZZY=              0.0028 XXYY=           -984.1746 XXZZ=           -795.8274 YYZZ=           -211.2442
 XXYZ=              0.0140 YYXZ=             -0.0221 ZZXY=             12.4585
 N-N= 9.424194133379D+02 E-N=-3.595865549132D+03  KE= 7.284808405339D+02
 1\1\GINC-SM9\FOpt\RwB97XD TD-FC\6-311++G(d,p)\C11H12F1N1O2\CA12053\13-
 Mar-2017\0\\# wb97xd 6-311++g** opt integral=ultrafine td=(nstates=1,r
 oot=1) SCRF=(PCM,solvent=dichloromethane)\\restarted opt\\0,1\C,-3.632
 5602062,1.8208940919,-0.8236777289\H,-4.6133315078,2.26435878,-0.98453
 65696\H,-3.0318464084,2.507246636,-0.2176628961\C,-5.1419417698,0.1158
 55419,0.167513424\H,-5.6257163104,0.8402121438,0.8294311043\N,-3.79247
 74591,0.5462690725,-0.150972736\H,-3.143196618,1.689046493,-1.79441956
 04\H,-5.1113314449,-0.8514961177,0.6665540913\H,-5.7371008738,0.024024
 1746,-0.7458300692\C,-2.7328962187,-0.2051088879,0.164311202\H,-2.9542
 619591,-1.1404256589,0.6652347832\C,-1.4117815797,0.1198256057,-0.0973
 228924\C,-0.3527569032,-0.7355552397,0.2719408505\H,-1.1804083126,1.04
 9341466,-0.5959380918\O,-0.6901512142,-1.8808118532,0.8902938925\C,1.0
 307755168,-0.4317430919,0.0164508443\C,2.0846093055,-1.3870617495,0.43
 74819613\C,1.4439058682,0.7419483663,-0.6217861318\O,1.757872457,-2.46
 53665252,1.0199142665\C,3.4456073919,-1.0681991016,0.1758397059\C,2.79
 78276551,0.9781470121,-0.8399962764\H,0.7441378338,1.4930807402,-0.961
 9592752\H,0.1617746561,-2.3568029838,1.0768181617\H,4.1903419241,-1.78
 7271177,0.4961846194\C,3.815935195,0.1082495778,-0.4607152781\F,3.1320
 24429,2.123694066,-1.4579360345\H,4.8496704815,0.3567440494,-0.6627410
 093\\Version=ES64L-G09RevD.01\State=1-A\HF=-731.385635\RMSD=9.150e-09\
 RMSF=5.214e-06\Dipole=-3.4740811,1.9380195,-0.7607228\PG=C01 [X(C11H12
 F1N1O2)]\\@


 "ANNA, YOU MUSN'T SPEAK OF OXIDIZED MURIATIC ACID
 ANYMORE, FROM NOW ON YOU MUST SAY CHLORINE."
   -- JENS JACOB BERZELIUS, IN 1820, TO HIS COOK, WHO HAD
 COMPLAINED OF THE SMELL OF THE FLASK SHE WAS CLEANING.
 Job cpu time:       7 days 13 hours 56 minutes 30.7 seconds.
 File lengths (MBytes):  RWF=    270 Int=      0 D2E=      0 Chk=     26 Scr=      1
 Normal termination of Gaussian 09 at Mon Mar 13 13:49:01 2017.
