 Entering Gaussian System, Link 0=g09
 Input=4_optS1_rotated_DCM.com
 Output=4_optS1_rotated_DCM.out
 Initial command:
 /share/apps/gaussian/g09_D01/g09/l1.exe "/tmp/101045.1.all.q/Gau-7225.inp" -scrdir="/tmp/101045.1.all.q/"
 Entering Link 1 = /share/apps/gaussian/g09_D01/g09/l1.exe PID=      7226.
  
 Copyright (c) 1988,1990,1992,1993,1995,1998,2003,2009,2013,
            Gaussian, Inc.  All Rights Reserved.
  
 This is part of the Gaussian(R) 09 program.  It is based on
 the Gaussian(R) 03 system (copyright 2003, Gaussian, Inc.),
 the Gaussian(R) 98 system (copyright 1998, Gaussian, Inc.),
 the Gaussian(R) 94 system (copyright 1995, Gaussian, Inc.),
 the Gaussian 92(TM) system (copyright 1992, Gaussian, Inc.),
 the Gaussian 90(TM) system (copyright 1990, Gaussian, Inc.),
 the Gaussian 88(TM) system (copyright 1988, Gaussian, Inc.),
 the Gaussian 86(TM) system (copyright 1986, Carnegie Mellon
 University), and the Gaussian 82(TM) system (copyright 1983,
 Carnegie Mellon University). Gaussian is a federally registered
 trademark of Gaussian, Inc.
  
 This software contains proprietary and confidential information,
 including trade secrets, belonging to Gaussian, Inc.
  
 This software is provided under written license and may be
 used, copied, transmitted, or stored only in accord with that
 written license.
  
 The following legend is applicable only to US Government
 contracts under FAR:
  
                    RESTRICTED RIGHTS LEGEND
  
 Use, reproduction and disclosure by the US Government is
 subject to restrictions as set forth in subparagraphs (a)
 and (c) of the Commercial Computer Software - Restricted
 Rights clause in FAR 52.227-19.
  
 Gaussian, Inc.
 340 Quinnipiac St., Bldg. 40, Wallingford CT 06492
  
  
 ---------------------------------------------------------------
 Warning -- This program may not be used in any manner that
 competes with the business of Gaussian, Inc. or will provide
 assistance to any competitor of Gaussian, Inc.  The licensee
 of this program is prohibited from giving any competitor of
 Gaussian, Inc. access to this program.  By using this program,
 the user acknowledges that Gaussian, Inc. is engaged in the
 business of creating and licensing software in the field of
 computational chemistry and represents and warrants to the
 licensee that it is not a competitor of Gaussian, Inc. and that
 it will not use this program in any manner prohibited above.
 ---------------------------------------------------------------
  

 Cite this work as:
 Gaussian 09, Revision D.01,
 M. J. Frisch, G. W. Trucks, H. B. Schlegel, G. E. Scuseria, 
 M. A. Robb, J. R. Cheeseman, G. Scalmani, V. Barone, B. Mennucci, 
 G. A. Petersson, H. Nakatsuji, M. Caricato, X. Li, H. P. Hratchian, 
 A. F. Izmaylov, J. Bloino, G. Zheng, J. L. Sonnenberg, M. Hada, 
 M. Ehara, K. Toyota, R. Fukuda, J. Hasegawa, M. Ishida, T. Nakajima, 
 Y. Honda, O. Kitao, H. Nakai, T. Vreven, J. A. Montgomery, Jr., 
 J. E. Peralta, F. Ogliaro, M. Bearpark, J. J. Heyd, E. Brothers, 
 K. N. Kudin, V. N. Staroverov, T. Keith, R. Kobayashi, J. Normand, 
 K. Raghavachari, A. Rendell, J. C. Burant, S. S. Iyengar, J. Tomasi, 
 M. Cossi, N. Rega, J. M. Millam, M. Klene, J. E. Knox, J. B. Cross, 
 V. Bakken, C. Adamo, J. Jaramillo, R. Gomperts, R. E. Stratmann, 
 O. Yazyev, A. J. Austin, R. Cammi, C. Pomelli, J. W. Ochterski, 
 R. L. Martin, K. Morokuma, V. G. Zakrzewski, G. A. Voth, 
 P. Salvador, J. J. Dannenberg, S. Dapprich, A. D. Daniels, 
 O. Farkas, J. B. Foresman, J. V. Ortiz, J. Cioslowski, 
 and D. J. Fox, Gaussian, Inc., Wallingford CT, 2013.
 
 ******************************************
 Gaussian 09:  ES64L-G09RevD.01 24-Apr-2013
                27-Jul-2017 
 ******************************************
 %chk=4_optS1_rotated_chain_DCM.chk
 %mem=28GB
 %nproc=4
 Will use up to    4 processors via shared memory.
 ----------------------------------------------------------------------
 # wb97xd 6-311++g** opt td=(nstates=1,root=1) SCRF=(PCM,solvent=dichlo
 romethane)
 ----------------------------------------------------------------------
 1/14=-1,18=20,19=15,26=3,38=1/1,3;
 2/9=110,12=2,17=6,18=5,40=1/2;
 3/5=4,6=6,7=1111,11=9,16=1,25=1,30=1,70=2201,71=1,72=9,74=-58/1,2,8,3;
 4//1;
 5/5=2,38=5,53=9/2;
 8/6=1,10=2,107=1,108=1/1;
 9/8=1,15=2,41=1,42=1,70=2/14;
 10/5=4/2;
 6/7=2,8=2,9=2,10=2/1;
 7/12=6,13=5,14=1/1,2,3,16;
 1/14=-1,18=20,19=15,26=3/3(2);
 2/9=110/2;
 99//99;
 2/9=110/2;
 3/5=4,6=6,7=1111,11=9,16=1,25=1,30=1,70=2205,71=1,72=9,74=-58/1,2,8,3;
 4/5=5,16=3,69=1/1;
 5/5=2,38=5,53=9/2;
 8/6=1,10=2,107=1,108=1/1;
 9/8=1,15=2,41=1,42=1,49=4,70=2/14;
 10/5=4/2;
 7/12=6,13=5,14=1/1,2,3,16;
 1/14=-1,18=20,19=15,26=3/3(-8);
 2/9=110/2;
 6/7=2,8=2,9=2,10=2/1;
 99//99;
 -----
 title
 -----
 Symbolic Z-matrix:
 Charge =  0 Multiplicity = 1
 C                     0.31685   0.05776   8.58792 
 H                     1.11447   0.7931    8.52012 
 H                    -0.47324   0.44266   9.23403 
 C                     0.29241   0.6758    6.1775 
 H                     0.05927   1.71462   6.41608 
 N                    -0.20635  -0.18563   7.24393 
 H                     0.71827  -0.86558   9.00547 
 H                    -0.17326   0.40486   5.23286 
 H                     1.37421   0.55964   6.09938 
 C                    -1.10499  -1.11311   7.00526 
 H                    -1.42268  -1.2134    5.97336 
 C                    -1.6943   -1.94274   7.9655 
 C                    -2.64975  -2.96535   7.55677 
 H                    -1.33349  -1.91602   8.99362 
 O                    -2.00731  -4.06497   7.26103 
 C                    -4.06797  -2.79901   7.56477 
 C                    -4.92137  -3.87899   7.20356 
 C                    -4.67822  -1.57788   7.91619 
 O                    -4.39183  -5.08315   6.85856 
 C                    -6.29541  -3.72185   7.19864 
 C                    -6.0612   -1.42855   7.90914 
 H                    -4.04858  -0.73907   8.19844 
 H                    -3.41456  -4.99309   6.92538 
 H                    -6.91291  -4.56869   6.91915 
 C                    -6.87318  -2.49742   7.55037 
 H                    -7.95183  -2.39119   7.54314 
 F                    -6.61942  -0.21682   8.262 
 

 GradGradGradGradGradGradGradGradGradGradGradGradGradGradGradGradGradGrad
 Berny optimization.
 Initialization pass.
                           ----------------------------
                           !    Initial Parameters    !
                           ! (Angstroms and Degrees)  !
 --------------------------                            --------------------------
 ! Name  Definition              Value          Derivative Info.                !
 --------------------------------------------------------------------------------
 ! R1    R(1,2)                  1.087          estimate D2E/DX2                !
 ! R2    R(1,3)                  1.0908         estimate D2E/DX2                !
 ! R3    R(1,6)                  1.4626         estimate D2E/DX2                !
 ! R4    R(1,7)                  1.09           estimate D2E/DX2                !
 ! R5    R(4,5)                  1.0911         estimate D2E/DX2                !
 ! R6    R(4,6)                  1.4588         estimate D2E/DX2                !
 ! R7    R(4,8)                  1.0875         estimate D2E/DX2                !
 ! R8    R(4,9)                  1.0908         estimate D2E/DX2                !
 ! R9    R(6,10)                 1.3133         estimate D2E/DX2                !
 ! R10   R(10,11)                1.0843         estimate D2E/DX2                !
 ! R11   R(10,12)                1.3991         estimate D2E/DX2                !
 ! R12   R(12,13)                1.458          estimate D2E/DX2                !
 ! R13   R(12,14)                1.0899         estimate D2E/DX2                !
 ! R14   R(13,15)                1.3074         estimate D2E/DX2                !
 ! R15   R(13,16)                1.428          estimate D2E/DX2                !
 ! R16   R(16,17)                1.4231         estimate D2E/DX2                !
 ! R17   R(16,18)                1.4096         estimate D2E/DX2                !
 ! R18   R(17,19)                1.3599         estimate D2E/DX2                !
 ! R19   R(17,20)                1.383          estimate D2E/DX2                !
 ! R20   R(18,21)                1.391          estimate D2E/DX2                !
 ! R21   R(18,22)                1.0861         estimate D2E/DX2                !
 ! R22   R(19,23)                0.9837         estimate D2E/DX2                !
 ! R23   R(20,24)                1.0847         estimate D2E/DX2                !
 ! R24   R(20,25)                1.3988         estimate D2E/DX2                !
 ! R25   R(21,25)                1.3894         estimate D2E/DX2                !
 ! R26   R(21,27)                1.38           estimate D2E/DX2                !
 ! R27   R(25,26)                1.0839         estimate D2E/DX2                !
 ! A1    A(2,1,3)              109.2531         estimate D2E/DX2                !
 ! A2    A(2,1,6)              108.5268         estimate D2E/DX2                !
 ! A3    A(2,1,7)              109.0703         estimate D2E/DX2                !
 ! A4    A(3,1,6)              110.1144         estimate D2E/DX2                !
 ! A5    A(3,1,7)              109.8014         estimate D2E/DX2                !
 ! A6    A(6,1,7)              110.0465         estimate D2E/DX2                !
 ! A7    A(5,4,6)              109.2275         estimate D2E/DX2                !
 ! A8    A(5,4,8)              109.6126         estimate D2E/DX2                !
 ! A9    A(5,4,9)              109.2067         estimate D2E/DX2                !
 ! A10   A(6,4,8)              109.967          estimate D2E/DX2                !
 ! A11   A(6,4,9)              109.1805         estimate D2E/DX2                !
 ! A12   A(8,4,9)              109.6289         estimate D2E/DX2                !
 ! A13   A(1,6,4)              116.8185         estimate D2E/DX2                !
 ! A14   A(1,6,10)             121.9567         estimate D2E/DX2                !
 ! A15   A(4,6,10)             121.2073         estimate D2E/DX2                !
 ! A16   A(6,10,11)            116.0232         estimate D2E/DX2                !
 ! A17   A(6,10,12)            125.6087         estimate D2E/DX2                !
 ! A18   A(11,10,12)           118.3502         estimate D2E/DX2                !
 ! A19   A(10,12,13)           119.9679         estimate D2E/DX2                !
 ! A20   A(10,12,14)           119.5652         estimate D2E/DX2                !
 ! A21   A(13,12,14)           119.9062         estimate D2E/DX2                !
 ! A22   A(12,13,15)           109.3485         estimate D2E/DX2                !
 ! A23   A(12,13,16)           124.5818         estimate D2E/DX2                !
 ! A24   A(15,13,16)           125.9632         estimate D2E/DX2                !
 ! A25   A(13,16,17)           120.3828         estimate D2E/DX2                !
 ! A26   A(13,16,18)           122.1587         estimate D2E/DX2                !
 ! A27   A(17,16,18)           117.4574         estimate D2E/DX2                !
 ! A28   A(16,17,19)           120.1893         estimate D2E/DX2                !
 ! A29   A(16,17,20)           120.6961         estimate D2E/DX2                !
 ! A30   A(19,17,20)           119.1146         estimate D2E/DX2                !
 ! A31   A(16,18,21)           121.476          estimate D2E/DX2                !
 ! A32   A(16,18,22)           118.8708         estimate D2E/DX2                !
 ! A33   A(21,18,22)           119.6532         estimate D2E/DX2                !
 ! A34   A(17,19,23)           106.7711         estimate D2E/DX2                !
 ! A35   A(17,20,24)           118.5427         estimate D2E/DX2                !
 ! A36   A(17,20,25)           120.5912         estimate D2E/DX2                !
 ! A37   A(24,20,25)           120.8659         estimate D2E/DX2                !
 ! A38   A(18,21,25)           119.9823         estimate D2E/DX2                !
 ! A39   A(18,21,27)           119.6786         estimate D2E/DX2                !
 ! A40   A(25,21,27)           120.3389         estimate D2E/DX2                !
 ! A41   A(20,25,21)           119.7968         estimate D2E/DX2                !
 ! A42   A(20,25,26)           119.6793         estimate D2E/DX2                !
 ! A43   A(21,25,26)           120.5237         estimate D2E/DX2                !
 ! D1    D(2,1,6,4)             -7.3066         estimate D2E/DX2                !
 ! D2    D(2,1,6,10)           174.2015         estimate D2E/DX2                !
 ! D3    D(3,1,6,4)            112.2369         estimate D2E/DX2                !
 ! D4    D(3,1,6,10)           -66.255          estimate D2E/DX2                !
 ! D5    D(7,1,6,4)           -126.5873         estimate D2E/DX2                !
 ! D6    D(7,1,6,10)            54.9208         estimate D2E/DX2                !
 ! D7    D(5,4,6,1)            -59.1978         estimate D2E/DX2                !
 ! D8    D(5,4,6,10)           119.3061         estimate D2E/DX2                !
 ! D9    D(8,4,6,1)           -179.5252         estimate D2E/DX2                !
 ! D10   D(8,4,6,10)            -1.0213         estimate D2E/DX2                !
 ! D11   D(9,4,6,1)             60.1568         estimate D2E/DX2                !
 ! D12   D(9,4,6,10)          -121.3392         estimate D2E/DX2                !
 ! D13   D(1,6,10,11)         -179.7803         estimate D2E/DX2                !
 ! D14   D(1,6,10,12)            1.7899         estimate D2E/DX2                !
 ! D15   D(4,6,10,11)            1.7933         estimate D2E/DX2                !
 ! D16   D(4,6,10,12)         -176.6365         estimate D2E/DX2                !
 ! D17   D(6,10,12,13)        -177.951          estimate D2E/DX2                !
 ! D18   D(6,10,12,14)          -6.5446         estimate D2E/DX2                !
 ! D19   D(11,10,12,13)          3.6523         estimate D2E/DX2                !
 ! D20   D(11,10,12,14)        175.0587         estimate D2E/DX2                !
 ! D21   D(10,12,13,15)         87.9671         estimate D2E/DX2                !
 ! D22   D(10,12,13,16)        -95.5983         estimate D2E/DX2                !
 ! D23   D(14,12,13,15)        -83.4099         estimate D2E/DX2                !
 ! D24   D(14,12,13,16)         93.0247         estimate D2E/DX2                !
 ! D25   D(12,13,16,17)       -177.1657         estimate D2E/DX2                !
 ! D26   D(12,13,16,18)          3.228          estimate D2E/DX2                !
 ! D27   D(15,13,16,17)         -1.3229         estimate D2E/DX2                !
 ! D28   D(15,13,16,18)        179.0708         estimate D2E/DX2                !
 ! D29   D(13,16,17,19)          0.5691         estimate D2E/DX2                !
 ! D30   D(13,16,17,20)       -179.4742         estimate D2E/DX2                !
 ! D31   D(18,16,17,19)       -179.8065         estimate D2E/DX2                !
 ! D32   D(18,16,17,20)          0.1502         estimate D2E/DX2                !
 ! D33   D(13,16,18,21)        179.4936         estimate D2E/DX2                !
 ! D34   D(13,16,18,22)         -0.5496         estimate D2E/DX2                !
 ! D35   D(17,16,18,21)         -0.1237         estimate D2E/DX2                !
 ! D36   D(17,16,18,22)        179.8331         estimate D2E/DX2                !
 ! D37   D(16,17,19,23)          0.0791         estimate D2E/DX2                !
 ! D38   D(20,17,19,23)       -179.8783         estimate D2E/DX2                !
 ! D39   D(16,17,20,24)       -179.898          estimate D2E/DX2                !
 ! D40   D(16,17,20,25)         -0.0682         estimate D2E/DX2                !
 ! D41   D(19,17,20,24)          0.0591         estimate D2E/DX2                !
 ! D42   D(19,17,20,25)        179.889          estimate D2E/DX2                !
 ! D43   D(16,18,21,25)          0.014          estimate D2E/DX2                !
 ! D44   D(16,18,21,27)        179.8933         estimate D2E/DX2                !
 ! D45   D(22,18,21,25)       -179.9425         estimate D2E/DX2                !
 ! D46   D(22,18,21,27)         -0.0632         estimate D2E/DX2                !
 ! D47   D(17,20,25,21)         -0.0462         estimate D2E/DX2                !
 ! D48   D(17,20,25,26)       -179.8917         estimate D2E/DX2                !
 ! D49   D(24,20,25,21)        179.7797         estimate D2E/DX2                !
 ! D50   D(24,20,25,26)         -0.0658         estimate D2E/DX2                !
 ! D51   D(18,21,25,20)          0.0734         estimate D2E/DX2                !
 ! D52   D(18,21,25,26)        179.9175         estimate D2E/DX2                !
 ! D53   D(27,21,25,20)       -179.8051         estimate D2E/DX2                !
 ! D54   D(27,21,25,26)          0.0391         estimate D2E/DX2                !
 --------------------------------------------------------------------------------
 Trust Radius=3.00D-01 FncErr=1.00D-07 GrdErr=1.00D-06
 Number of steps in this run=    134 maximum allowed number of steps=    162.
 GradGradGradGradGradGradGradGradGradGradGradGradGradGradGradGradGradGrad

                          Input orientation:                          
 ---------------------------------------------------------------------
 Center     Atomic      Atomic             Coordinates (Angstroms)
 Number     Number       Type             X           Y           Z
 ---------------------------------------------------------------------
      1          6           0        0.316854    0.057761    8.587923
      2          1           0        1.114474    0.793101    8.520124
      3          1           0       -0.473235    0.442658    9.234030
      4          6           0        0.292413    0.675804    6.177501
      5          1           0        0.059266    1.714616    6.416079
      6          7           0       -0.206352   -0.185630    7.243926
      7          1           0        0.718271   -0.865575    9.005470
      8          1           0       -0.173260    0.404860    5.232861
      9          1           0        1.374213    0.559638    6.099375
     10          6           0       -1.104989   -1.113111    7.005265
     11          1           0       -1.422684   -1.213403    5.973364
     12          6           0       -1.694300   -1.942739    7.965498
     13          6           0       -2.649748   -2.965352    7.556768
     14          1           0       -1.333485   -1.916023    8.993618
     15          8           0       -2.007309   -4.064968    7.261028
     16          6           0       -4.067970   -2.799014    7.564772
     17          6           0       -4.921368   -3.878985    7.203560
     18          6           0       -4.678219   -1.577881    7.916194
     19          8           0       -4.391831   -5.083145    6.858563
     20          6           0       -6.295411   -3.721852    7.198635
     21          6           0       -6.061197   -1.428547    7.909143
     22          1           0       -4.048580   -0.739066    8.198445
     23          1           0       -3.414555   -4.993086    6.925377
     24          1           0       -6.912912   -4.568690    6.919154
     25          6           0       -6.873176   -2.497424    7.550374
     26          1           0       -7.951832   -2.391192    7.543141
     27          9           0       -6.619420   -0.216822    8.262004
 ---------------------------------------------------------------------
                    Distance matrix (angstroms):
                    1          2          3          4          5
     1  C    0.000000
     2  H    1.086977   0.000000
     3  H    1.090798   1.775751   0.000000
     4  C    2.488515   2.485443   3.159580   0.000000
     5  H    2.743798   2.527778   3.137241   1.091058   0.000000
     6  N    1.462639   2.081148   2.103922   1.458800   2.089693
     7  H    1.089968   1.773061   1.784208   3.248786   3.714380
     8  H    3.408391   3.551773   4.012576   1.087477   1.780318
     9  H    2.750047   2.445812   3.640441   1.090821   1.778584
    10  C    2.428453   3.294610   2.790506   2.416225   3.114269
    11  H    3.387886   4.116942   3.778351   2.559752   3.311415
    12  C    2.904161   3.960005   2.964843   3.741755   4.341882
    13  C    4.359268   5.405866   4.377779   4.880236   5.526484
    14  H    2.604617   3.681855   2.522143   4.158320   4.665298
    15  O    4.915209   5.910303   5.154106   5.379375   6.195826
    16  C    5.332418   6.377595   5.120252   5.745591   6.223056
    17  C    6.697268   7.745522   6.525741   6.998744   7.530950
    18  C    5.298802   6.288210   4.847800   5.727943   5.961094
    19  O    7.182709   8.222557   7.178631   7.454628   8.137420
    20  C    7.741941   8.777103   7.442023   7.986333   8.399375
    21  C    6.584025   7.536529   6.040038   6.913410   7.040510
    22  H    4.454620   5.395196   3.905381   4.993024   5.106054
    23  H    6.496039   7.518995   6.597617   6.814488   7.571003
    24  H    8.744047   9.785235   8.481845   8.942677   9.399164
    25  C    7.700780   8.693131   7.241410   7.956119   8.190645
    26  H    8.686778   9.658785   8.174303   8.901630   9.072244
    27  F    6.949353   7.803825   6.257422   7.274295   7.193243
                    6          7          8          9         10
     6  N    0.000000
     7  H    2.102449   0.000000
     8  H    2.096224   4.079389   0.000000
     9  H    2.088925   3.302557   1.780302   0.000000
    10  C    1.313289   2.717788   2.512722   3.124927   0.000000
    11  H    2.037182   3.728048   2.174438   3.313938   1.084347
    12  C    2.412900   2.839423   3.910510   4.377223   1.399149
    13  C    3.714150   4.225086   4.784544   5.544530   2.474112
    14  H    2.706679   2.305056   4.569017   4.673026   2.156485
    15  O    4.277032   4.550602   5.239901   5.845606   3.097266
    16  C    4.673843   5.359282   5.556202   6.560891   3.454645
    17  C    5.989480   6.643271   6.691750   7.781705   4.717428
    18  C    4.731586   5.551217   5.605907   6.670963   3.716689
    19  O    6.453866   6.964930   7.110376   8.103372   5.156163
    20  C    7.041559   7.785545   7.640337   8.852269   5.812349
    21  C    6.022173   6.890577   6.722475   7.906545   5.047821
    22  H    3.997513   4.836338   5.012121   5.958138   3.198174
    23  H    5.788409   6.200273   6.519849   7.378843   4.516047
    24  H    8.018394   8.735029   8.544161   9.779991   6.758728
    25  C    7.062920   7.900019   7.660483   8.914620   5.956966
    26  H    8.058939   8.923934   8.582627   9.887718   6.985847
    27  F    6.493450   7.403737   7.149488   8.317333   5.726401
                   11         12         13         14         15
    11  H    0.000000
    12  C    2.138762   0.000000
    13  C    2.661236   1.457971   0.000000
    14  H    3.102187   1.089923   2.213183   0.000000
    15  O    3.182968   2.257899   1.307419   2.841456   0.000000
    16  C    3.470487   2.555014   1.427966   3.209156   2.437463
    17  C    4.567220   3.839735   2.473811   4.464351   2.920553
    18  C    3.808667   3.006547   2.483739   3.530216   3.707911
    19  O    4.957249   4.285339   2.829733   4.893118   2.623854
    20  C    5.615788   4.992349   3.740509   5.577068   4.302260
    21  C    5.030838   4.397426   3.758181   4.874934   4.879014
    22  H    3.474379   2.654379   2.706442   3.064191   4.013373
    23  H    4.377200   3.653183   2.257275   4.251681   1.718839
    24  H    6.503466   5.935012   4.599110   6.516905   4.943233
    25  C    5.817520   5.225013   4.249275   5.754056   5.120310
    26  H    6.817709   6.287782   5.333099   6.792068   6.182109
    27  F    5.765163   5.227189   4.879556   5.600326   6.089478
                   16         17         18         19         20
    16  C    0.000000
    17  C    1.423060   0.000000
    18  C    1.409634   2.421167   0.000000
    19  O    2.412648   1.359939   3.672530   0.000000
    20  C    2.438684   1.383007   2.779714   2.364822   0.000000
    21  C    2.443302   2.793153   1.391035   4.152901   2.412245
    22  H    2.155297   3.407440   1.086150   4.558961   3.865861
    23  H    2.376916   1.894490   3.773883   0.983689   3.160702
    24  H    3.412077   2.126694   3.864308   2.573749   1.084690
    25  C    2.821408   2.416308   2.407742   3.649881   1.398841
    26  H    3.905275   3.393016   3.393698   4.515403   2.152457
    27  F    3.696450   4.173142   2.395898   5.532892   3.677087
                   21         22         23         24         25
    21  C    0.000000
    22  H    2.147023   0.000000
    23  H    4.547356   4.485463   0.000000
    24  H    3.400881   4.950455   3.524011   0.000000
    25  C    1.389433   3.389714   4.310569   2.165678   0.000000
    26  H    2.152938   4.288860   5.266723   2.492030   1.083899
    27  F    1.380000   2.624118   5.905118   4.563785   2.402489
                   26         27
    26  H    0.000000
    27  F    2.649522   0.000000
 Stoichiometry    C11H12FNO2
 Framework group  C1[X(C11H12FNO2)]
 Deg. of freedom    75
 Full point group                 C1      NOp   1
 Largest Abelian subgroup         C1      NOp   1
 Largest concise Abelian subgroup C1      NOp   1
                         Standard orientation:                         
 ---------------------------------------------------------------------
 Center     Atomic      Atomic             Coordinates (Angstroms)
 Number     Number       Type             X           Y           Z
 ---------------------------------------------------------------------
      1          6           0       -4.082491    0.570339   -1.135605
      2          1           0       -5.114730    0.895589   -1.034534
      3          1           0       -3.505298    1.353439   -1.629005
      4          6           0       -4.383903    0.686817    1.331841
      5          1           0       -4.595780    1.756076    1.284929
      6          7           0       -3.543292    0.313503    0.199539
      7          1           0       -4.053184   -0.341431   -1.732134
      8          1           0       -3.874441    0.456225    2.264516
      9          1           0       -5.321943    0.132493    1.279929
     10          6           0       -2.348094   -0.200147    0.379519
     11          1           0       -2.046415   -0.353578    1.409692
     12          6           0       -1.441278   -0.528191   -0.634231
     13          6           0       -0.159727   -1.135788   -0.296395
     14          1           0       -1.751784   -0.458775   -1.676679
     15          8           0       -0.296538   -2.435000   -0.244666
     16          6           0        1.061564   -0.414009   -0.133387
     17          6           0        2.275396   -1.105299    0.138330
     18          6           0        1.120279    0.991486   -0.223950
     19          8           0        2.283240   -2.461882    0.233489
     20          6           0        3.459955   -0.411964    0.308081
     21          6           0        2.316139    1.681035   -0.052428
     22          1           0        0.207737    1.542097   -0.433273
     23          1           0        1.358843   -2.762372    0.082361
     24          1           0        4.364860   -0.974140    0.512181
     25          6           0        3.487766    0.983460    0.214412
     26          1           0        4.424676    1.511774    0.348280
     27          9           0        2.331472    3.057411   -0.151194
 ---------------------------------------------------------------------
 Rotational constants (GHZ):      0.8936907      0.3223189      0.2536819
 Standard basis: 6-311++G(d,p) (5D, 7F)
 There are   429 symmetry adapted cartesian basis functions of A   symmetry.
 There are   414 symmetry adapted basis functions of A   symmetry.
   414 basis functions,   648 primitive gaussians,   429 cartesian basis functions
    55 alpha electrons       55 beta electrons
       nuclear repulsion energy       945.1906569531 Hartrees.
 NAtoms=   27 NActive=   27 NUniq=   27 SFac= 1.00D+00 NAtFMM=   60 NAOKFM=F Big=F
 Integral buffers will be    131072 words long.
 Raffenetti 1 integral format.
 Two-electron integral symmetry is turned on.
 Nuclear repulsion after empirical dispersion term =      945.1750583073 Hartrees.
 ------------------------------------------------------------------------------
 Polarizable Continuum Model (PCM)
 =================================
 Model                : PCM (using non-symmetric T matrix).
 Atomic radii         : UFF (Universal Force Field).
 Polarization charges : Total charges.
 Charge compensation  : None.
 Solution method      : On-the-fly selection.
 Cavity type          : Scaled VdW (van der Waals Surface) (Alpha=1.100).
 Cavity algorithm     : GePol (No added spheres)
                        Default sphere list used, NSphG=   27.
                        Lebedev-Laikov grids with approx.  5.0 points / Ang**2.
                        Smoothing algorithm: Karplus/York (Gamma=1.0000).
                        Polarization charges: spherical gaussians, with
                                              point-specific exponents (IZeta= 3).
                        Self-potential: point-specific (ISelfS= 7).
                        Self-field    : sphere-specific E.n sum rule (ISelfD= 2).
 1st derivatives      : Analytical E(r).r(x)/FMM algorithm (CHGder, D1EAlg=3).
                        Cavity 1st derivative terms included.
 Solvent              : Dichloromethane, Eps=   8.930000 Eps(inf)=   2.028346
 ------------------------------------------------------------------------------
 One-electron integrals computed using PRISM.
 NBasis=   414 RedAO= T EigKep=  1.84D-06  NBF=   414
 NBsUse=   412 1.00D-06 EigRej=  7.99D-07 NBFU=   412
 ExpMin= 3.60D-02 ExpMax= 1.14D+04 ExpMxC= 1.72D+03 IAcc=3 IRadAn=         5 AccDes= 0.00D+00
 Harris functional with IExCor= 4639 and IRadAn=       5 diagonalized for initial guess.
 HarFok:  IExCor= 4639 AccDes= 0.00D+00 IRadAn=         5 IDoV= 1 UseB2=F ITyADJ=14
 ICtDFT=  3500011 ScaDFX=  1.000000  1.000000  1.000000  1.000000
 FoFCou: FMM=F IPFlag=           0 FMFlag=      100000 FMFlg1=           0
         NFxFlg=           0 DoJE=T BraDBF=F KetDBF=T FulRan=T
         wScrn=  0.000000 ICntrl=     500 IOpCl=  0 I1Cent=   200000004 NGrid=           0
         NMat0=    1 NMatS0=      1 NMatT0=    0 NMatD0=    1 NMtDS0=    0 NMtDT0=    0
 Petite list used in FoFCou.
 Requested convergence on RMS density matrix=1.00D-08 within 128 cycles.
 Requested convergence on MAX density matrix=1.00D-06.
 Requested convergence on             energy=1.00D-06.
 No special actions if energy rises.
 Inv3:  Mode=1 IEnd=    14427747.
 Iteration    1 A*A^-1 deviation from unit magnitude is 4.88D-15 for   2170.
 Iteration    1 A*A^-1 deviation from orthogonality  is 3.48D-15 for   2127    545.
 Iteration    1 A^-1*A deviation from unit magnitude is 4.88D-15 for   2167.
 Iteration    1 A^-1*A deviation from orthogonality  is 3.77D-10 for   2160   2147.
 Iteration    2 A*A^-1 deviation from unit magnitude is 6.33D-15 for    547.
 Iteration    2 A*A^-1 deviation from orthogonality  is 7.04D-15 for   2183    364.
 Iteration    2 A^-1*A deviation from unit magnitude is 9.99D-16 for    437.
 Iteration    2 A^-1*A deviation from orthogonality  is 1.02D-15 for   2167    375.
 Error on total polarization charges =  0.01278
 SCF Done:  E(RwB97XD) =  -731.361467202     A.U. after   18 cycles
            NFock= 18  Conv=0.68D-08     -V/T= 2.0041
 DoSCS=F DFT=T ScalE2(SS,OS)=  1.000000  1.000000
 ExpMin= 3.60D-02 ExpMax= 1.14D+04 ExpMxC= 1.72D+03 IAcc=3 IRadAn=         5 AccDes= 0.00D+00
 HarFok:  IExCor=  205 AccDes= 0.00D+00 IRadAn=         5 IDoV=-2 UseB2=F ITyADJ=14
 ICtDFT= 12500011 ScaDFX=  1.000000  1.000000  1.000000  1.000000
 Range of M.O.s used for correlation:    16   412
 NBasis=   414 NAE=    55 NBE=    55 NFC=    15 NFV=     0
 NROrb=    397 NOA=    40 NOB=    40 NVA=   357 NVB=   357

 **** Warning!!: The largest alpha MO coefficient is  0.12350100D+03

 Would need an additional         18421000000 words for in-memory AO integral storage.
 NEqPCM:  Using equilibrium solvation (IEInf=0, Eps=   8.9300, EpsInf=   2.0283)
 Orbital symmetries:
       Occupied  (A) (A) (A) (A) (A) (A) (A) (A) (A) (A) (A) (A)
                 (A) (A) (A) (A) (A) (A) (A) (A) (A) (A) (A) (A)
                 (A) (A) (A) (A) (A) (A) (A) (A) (A) (A) (A) (A)
                 (A) (A) (A) (A) (A) (A) (A) (A) (A) (A) (A) (A)
                 (A) (A) (A) (A) (A) (A) (A)
       Virtual   (A) (A) (A) (A) (A) (A) (A) (A) (A) (A) (A) (A)
                 (A) (A) (A) (A) (A) (A) (A) (A) (A) (A) (A) (A)
                 (A) (A) (A) (A) (A) (A) (A) (A) (A) (A) (A) (A)
                 (A) (A) (A) (A) (A) (A) (A) (A) (A) (A) (A) (A)
                 (A) (A) (A) (A) (A) (A) (A) (A) (A) (A) (A) (A)
                 (A) (A) (A) (A) (A) (A) (A) (A) (A) (A) (A) (A)
                 (A) (A) (A) (A) (A) (A) (A) (A) (A) (A) (A) (A)
                 (A) (A) (A) (A) (A) (A) (A) (A) (A) (A) (A) (A)
                 (A) (A) (A) (A) (A) (A) (A) (A) (A) (A) (A) (A)
                 (A) (A) (A) (A) (A) (A) (A) (A) (A) (A) (A) (A)
                 (A) (A) (A) (A) (A) (A) (A) (A) (A) (A) (A) (A)
                 (A) (A) (A) (A) (A) (A) (A) (A) (A) (A) (A) (A)
                 (A) (A) (A) (A) (A) (A) (A) (A) (A) (A) (A) (A)
                 (A) (A) (A) (A) (A) (A) (A) (A) (A) (A) (A) (A)
                 (A) (A) (A) (A) (A) (A) (A) (A) (A) (A) (A) (A)
                 (A) (A) (A) (A) (A) (A) (A) (A) (A) (A) (A) (A)
                 (A) (A) (A) (A) (A) (A) (A) (A) (A) (A) (A) (A)
                 (A) (A) (A) (A) (A) (A) (A) (A) (A) (A) (A) (A)
                 (A) (A) (A) (A) (A) (A) (A) (A) (A) (A) (A) (A)
                 (A) (A) (A) (A) (A) (A) (A) (A) (A) (A) (A) (A)
                 (A) (A) (A) (A) (A) (A) (A) (A) (A) (A) (A) (A)
                 (A) (A) (A) (A) (A) (A) (A) (A) (A) (A) (A) (A)
                 (A) (A) (A) (A) (A) (A) (A) (A) (A) (A) (A) (A)
                 (A) (A) (A) (A) (A) (A) (A) (A) (A) (A) (A) (A)
                 (A) (A) (A) (A) (A) (A) (A) (A) (A) (A) (A) (A)
                 (A) (A) (A) (A) (A) (A) (A) (A) (A) (A) (A) (A)
                 (A) (A) (A) (A) (A) (A) (A) (A) (A) (A) (A) (A)
                 (A) (A) (A) (A) (A) (A) (A) (A) (A) (A) (A) (A)
                 (A) (A) (A) (A) (A) (A) (A) (A) (A) (A) (A) (A)
                 (A) (A) (A) (A) (A) (A) (A) (A) (A)
     8 initial guesses have been made.
 Convergence on wavefunction:    0.000001000000000
 Iteration     1 Dimension     8 NMult     0 NNew      8
 CISAX will form     8 AO SS matrices at one time.
 Iteration     2 Dimension    12 NMult     8 NNew      4
 Iteration     3 Dimension    16 NMult    12 NNew      4
 Iteration     4 Dimension    20 NMult    16 NNew      4
 Iteration     5 Dimension    24 NMult    20 NNew      4
 Iteration     6 Dimension    28 NMult    24 NNew      4
 Iteration     7 Dimension    32 NMult    28 NNew      4
 Iteration     8 Dimension    36 NMult    32 NNew      4
 Iteration     9 Dimension    40 NMult    36 NNew      4
 Iteration    10 Dimension    44 NMult    40 NNew      4
 Iteration    11 Dimension    48 NMult    44 NNew      4
 ***********************************************************************
 Excited states from <AA,BB:AA,BB> singles matrix:
 ***********************************************************************
 
 Ground to excited state transition densities written to RWF  633
 Ground to excited state transition electric dipole moments (Au):
       state          X           Y           Z        Dip. S.      Osc.
         1         0.0378     -0.0593     -0.0297      0.0058      0.0003
 Ground to excited state transition velocity dipole moments (Au):
       state          X           Y           Z        Dip. S.      Osc.
         1        -0.0027      0.0079     -0.0009      0.0001      0.0006
 Ground to excited state transition magnetic dipole moments (Au):
       state          X           Y           Z
         1        -0.1106     -0.2179     -0.0103
 Ground to excited state transition velocity quadrupole moments (Au):
       state          XX          YY          ZZ          XY          XZ          YZ
         1         0.0251     -0.0194      0.0094     -0.0196     -0.0030     -0.0036
 <0|del|b> * <b|rxdel|0> + <0|del|b> * <b|delr+rdel|0>
 Rotatory Strengths (R) in cgs (10**-40 erg-esu-cm/Gauss)
       state          XX          YY          ZZ    R(velocity)    E-M Angle
         1        -7.0822      1.2680     -6.1734     -3.9959      133.53
 1/2[<0|r|b>*<b|rxdel|0> + (<0|rxdel|b>*<b|r|0>)*]
 Rotatory Strengths (R) in cgs (10**-40 erg-esu-cm/Gauss)
       state          XX          YY          ZZ     R(length)
         1         2.9595     -9.1434     -0.2154     -2.1331
  1/2[<0|del|b>*<b|r|0> + (<0|r|b>*<b|del|0>)*] (Au)
       state          X           Y           Z        Dip. S.   Osc.(frdel)
         1        -0.0001     -0.0005      0.0000      0.0005      0.0004

 Excitation energies and oscillator strengths:
 
 Excited State   1:      Singlet-A      2.2611 eV  548.34 nm  f=0.0003  <S**2>=0.000
      52 -> 56        -0.11467
      55 -> 56         0.67052
      55 -> 67         0.12806
 This state for optimization and/or second-order correction.
 Total Energy, E(TD-HF/TD-KS) =  -731.278373631    
 Copying the excited state density for this state as the 1-particle RhoCI density.
 SavETr:  write IOETrn=   770 NScale= 10 NData=  16 NLR=1 NState=    1 LETran=      28.
          IDoAtm=111111111111111111111111111
 NEqPCM:  Using equilibrium solvation (IEInf=0, Eps=   8.9300, EpsInf=   2.0283)
          Differentiating once with respect to electric field.
                with respect to dipole field.
          Differentiating once with respect to nuclear coordinates.
          There are     1 degrees of freedom in the 1st order CPHF.  IDoFFX=0 NUNeed=     1.
 LinEq1:  Iter=  0 NonCon=     1 RMS=5.51D-03 Max=1.21D-01 NDo=     1
 AX will form     1 AO Fock derivatives at one time.
 LinEq1:  Iter=  1 NonCon=     1 RMS=1.64D-03 Max=4.66D-02 NDo=     1
 LinEq1:  Iter=  2 NonCon=     1 RMS=1.09D-03 Max=6.64D-02 NDo=     1
 LinEq1:  Iter=  3 NonCon=     1 RMS=5.38D-04 Max=2.50D-02 NDo=     1
 LinEq1:  Iter=  4 NonCon=     1 RMS=3.17D-04 Max=1.22D-02 NDo=     1
 LinEq1:  Iter=  5 NonCon=     1 RMS=1.83D-04 Max=9.83D-03 NDo=     1
 LinEq1:  Iter=  6 NonCon=     1 RMS=1.00D-04 Max=2.70D-03 NDo=     1
 LinEq1:  Iter=  7 NonCon=     1 RMS=4.77D-05 Max=1.62D-03 NDo=     1
 LinEq1:  Iter=  8 NonCon=     1 RMS=2.18D-05 Max=1.11D-03 NDo=     1
 LinEq1:  Iter=  9 NonCon=     1 RMS=9.33D-06 Max=4.31D-04 NDo=     1
 LinEq1:  Iter= 10 NonCon=     1 RMS=4.20D-06 Max=2.30D-04 NDo=     1
 LinEq1:  Iter= 11 NonCon=     1 RMS=2.21D-06 Max=1.39D-04 NDo=     1
 LinEq1:  Iter= 12 NonCon=     1 RMS=1.17D-06 Max=6.23D-05 NDo=     1
 LinEq1:  Iter= 13 NonCon=     1 RMS=6.44D-07 Max=2.61D-05 NDo=     1
 LinEq1:  Iter= 14 NonCon=     1 RMS=2.97D-07 Max=9.41D-06 NDo=     1
 LinEq1:  Iter= 15 NonCon=     1 RMS=1.21D-07 Max=4.51D-06 NDo=     1
 LinEq1:  Iter= 16 NonCon=     1 RMS=4.11D-08 Max=1.08D-06 NDo=     1
 LinEq1:  Iter= 17 NonCon=     1 RMS=1.70D-08 Max=4.81D-07 NDo=     1
 LinEq1:  Iter= 18 NonCon=     1 RMS=8.09D-09 Max=2.19D-07 NDo=     1
 LinEq1:  Iter= 19 NonCon=     1 RMS=3.12D-09 Max=9.64D-08 NDo=     1
 LinEq1:  Iter= 20 NonCon=     1 RMS=1.73D-09 Max=4.54D-08 NDo=     1
 LinEq1:  Iter= 21 NonCon=     1 RMS=6.13D-10 Max=1.39D-08 NDo=     1
 LinEq1:  Iter= 22 NonCon=     1 RMS=2.90D-10 Max=6.67D-09 NDo=     1
 LinEq1:  Iter= 23 NonCon=     1 RMS=9.31D-11 Max=3.54D-09 NDo=     1
 LinEq1:  Iter= 24 NonCon=     0 RMS=3.23D-11 Max=8.12D-10 NDo=     1
 Linear equations converged to 1.000D-10 1.000D-09 after    24 iterations.
 End of Minotr F.D. properties file   721 does not exist.
 End of Minotr F.D. properties file   722 does not exist.
 End of Minotr F.D. properties file   788 does not exist.

 **********************************************************************

            Population analysis using the SCF density.

 **********************************************************************

 Orbital symmetries:
       Occupied  (A) (A) (A) (A) (A) (A) (A) (A) (A) (A) (A) (A)
                 (A) (A) (A) (A) (A) (A) (A) (A) (A) (A) (A) (A)
                 (A) (A) (A) (A) (A) (A) (A) (A) (A) (A) (A) (A)
                 (A) (A) (A) (A) (A) (A) (A) (A) (A) (A) (A) (A)
                 (A) (A) (A) (A) (A) (A) (A)
       Virtual   (A) (A) (A) (A) (A) (A) (A) (A) (A) (A) (A) (A)
                 (A) (A) (A) (A) (A) (A) (A) (A) (A) (A) (A) (A)
                 (A) (A) (A) (A) (A) (A) (A) (A) (A) (A) (A) (A)
                 (A) (A) (A) (A) (A) (A) (A) (A) (A) (A) (A) (A)
                 (A) (A) (A) (A) (A) (A) (A) (A) (A) (A) (A) (A)
                 (A) (A) (A) (A) (A) (A) (A) (A) (A) (A) (A) (A)
                 (A) (A) (A) (A) (A) (A) (A) (A) (A) (A) (A) (A)
                 (A) (A) (A) (A) (A) (A) (A) (A) (A) (A) (A) (A)
                 (A) (A) (A) (A) (A) (A) (A) (A) (A) (A) (A) (A)
                 (A) (A) (A) (A) (A) (A) (A) (A) (A) (A) (A) (A)
                 (A) (A) (A) (A) (A) (A) (A) (A) (A) (A) (A) (A)
                 (A) (A) (A) (A) (A) (A) (A) (A) (A) (A) (A) (A)
                 (A) (A) (A) (A) (A) (A) (A) (A) (A) (A) (A) (A)
                 (A) (A) (A) (A) (A) (A) (A) (A) (A) (A) (A) (A)
                 (A) (A) (A) (A) (A) (A) (A) (A) (A) (A) (A) (A)
                 (A) (A) (A) (A) (A) (A) (A) (A) (A) (A) (A) (A)
                 (A) (A) (A) (A) (A) (A) (A) (A) (A) (A) (A) (A)
                 (A) (A) (A) (A) (A) (A) (A) (A) (A) (A) (A) (A)
                 (A) (A) (A) (A) (A) (A) (A) (A) (A) (A) (A) (A)
                 (A) (A) (A) (A) (A) (A) (A) (A) (A) (A) (A) (A)
                 (A) (A) (A) (A) (A) (A) (A) (A) (A) (A) (A) (A)
                 (A) (A) (A) (A) (A) (A) (A) (A) (A) (A) (A) (A)
                 (A) (A) (A) (A) (A) (A) (A) (A) (A) (A) (A) (A)
                 (A) (A) (A) (A) (A) (A) (A) (A) (A) (A) (A) (A)
                 (A) (A) (A) (A) (A) (A) (A) (A) (A) (A) (A) (A)
                 (A) (A) (A) (A) (A) (A) (A) (A) (A) (A) (A) (A)
                 (A) (A) (A) (A) (A) (A) (A) (A) (A) (A) (A) (A)
                 (A) (A) (A) (A) (A) (A) (A) (A) (A) (A) (A) (A)
                 (A) (A) (A) (A) (A) (A) (A) (A) (A) (A) (A) (A)
                 (A) (A) (A) (A) (A) (A) (A) (A) (A)
 The electronic state is 1-A.
 Alpha  occ. eigenvalues --  -24.82971 -19.28187 -19.25227 -14.46291 -10.39895
 Alpha  occ. eigenvalues --  -10.39005 -10.38081 -10.33076 -10.32694 -10.32564
 Alpha  occ. eigenvalues --  -10.32414 -10.31598 -10.31524 -10.31008 -10.26627
 Alpha  occ. eigenvalues --   -1.33337  -1.17813  -1.12392  -1.06920  -0.98859
 Alpha  occ. eigenvalues --   -0.90461  -0.86877  -0.86453  -0.83056  -0.79968
 Alpha  occ. eigenvalues --   -0.76796  -0.72518  -0.69674  -0.66006  -0.64753
 Alpha  occ. eigenvalues --   -0.62556  -0.61313  -0.60140  -0.58053  -0.56871
 Alpha  occ. eigenvalues --   -0.56489  -0.55199  -0.54461  -0.53638  -0.52647
 Alpha  occ. eigenvalues --   -0.51455  -0.50963  -0.49763  -0.49504  -0.48090
 Alpha  occ. eigenvalues --   -0.47643  -0.47300  -0.45568  -0.44266  -0.43689
 Alpha  occ. eigenvalues --   -0.40978  -0.36370  -0.36099  -0.32034  -0.26539
 Alpha virt. eigenvalues --   -0.02962   0.04006   0.04629   0.04773   0.05633
 Alpha virt. eigenvalues --    0.05890   0.06202   0.06890   0.07934   0.08048
 Alpha virt. eigenvalues --    0.08397   0.08847   0.09061   0.09379   0.10043
 Alpha virt. eigenvalues --    0.10311   0.11549   0.12195   0.12623   0.13305
 Alpha virt. eigenvalues --    0.13907   0.14308   0.14919   0.15487   0.16107
 Alpha virt. eigenvalues --    0.16302   0.16523   0.17034   0.17113   0.17239
 Alpha virt. eigenvalues --    0.17554   0.18438   0.18477   0.18657   0.18894
 Alpha virt. eigenvalues --    0.19371   0.19839   0.20117   0.20598   0.20679
 Alpha virt. eigenvalues --    0.20899   0.21530   0.22002   0.22248   0.22475
 Alpha virt. eigenvalues --    0.23326   0.23894   0.24046   0.24467   0.24665
 Alpha virt. eigenvalues --    0.25167   0.25508   0.26516   0.27439   0.27884
 Alpha virt. eigenvalues --    0.28307   0.28837   0.28941   0.29036   0.29678
 Alpha virt. eigenvalues --    0.30517   0.31118   0.31735   0.31982   0.32243
 Alpha virt. eigenvalues --    0.32725   0.32992   0.33652   0.34637   0.35130
 Alpha virt. eigenvalues --    0.35227   0.35741   0.36268   0.36366   0.37459
 Alpha virt. eigenvalues --    0.37762   0.38243   0.38427   0.38904   0.39034
 Alpha virt. eigenvalues --    0.39622   0.40522   0.40834   0.42064   0.42915
 Alpha virt. eigenvalues --    0.43301   0.43735   0.43885   0.45161   0.45524
 Alpha virt. eigenvalues --    0.46099   0.47091   0.49469   0.49886   0.50915
 Alpha virt. eigenvalues --    0.51205   0.52397   0.53077   0.54449   0.54907
 Alpha virt. eigenvalues --    0.55234   0.57792   0.58384   0.59524   0.60334
 Alpha virt. eigenvalues --    0.60822   0.61888   0.64077   0.64872   0.65284
 Alpha virt. eigenvalues --    0.66283   0.66840   0.67638   0.68017   0.68363
 Alpha virt. eigenvalues --    0.69133   0.70429   0.70995   0.71673   0.72406
 Alpha virt. eigenvalues --    0.73024   0.73274   0.74212   0.74562   0.75277
 Alpha virt. eigenvalues --    0.75492   0.76913   0.78142   0.79199   0.80065
 Alpha virt. eigenvalues --    0.80318   0.80990   0.82471   0.83221   0.84824
 Alpha virt. eigenvalues --    0.85042   0.86111   0.89208   0.90671   0.91402
 Alpha virt. eigenvalues --    0.92662   0.92818   0.93764   0.96431   0.96694
 Alpha virt. eigenvalues --    0.97427   0.99233   0.99414   1.01202   1.02055
 Alpha virt. eigenvalues --    1.02748   1.05265   1.05774   1.07077   1.07884
 Alpha virt. eigenvalues --    1.09299   1.09953   1.10788   1.12949   1.14143
 Alpha virt. eigenvalues --    1.16503   1.16806   1.17502   1.19797   1.20674
 Alpha virt. eigenvalues --    1.21067   1.22629   1.23212   1.25604   1.27777
 Alpha virt. eigenvalues --    1.29256   1.30538   1.32043   1.35296   1.36206
 Alpha virt. eigenvalues --    1.38178   1.39842   1.41807   1.46769   1.47770
 Alpha virt. eigenvalues --    1.49203   1.50940   1.51954   1.52500   1.52576
 Alpha virt. eigenvalues --    1.53735   1.54950   1.56290   1.58133   1.58647
 Alpha virt. eigenvalues --    1.60162   1.61714   1.62718   1.63235   1.63902
 Alpha virt. eigenvalues --    1.64362   1.64887   1.65186   1.67976   1.68547
 Alpha virt. eigenvalues --    1.68655   1.70860   1.72280   1.74157   1.74476
 Alpha virt. eigenvalues --    1.75609   1.77531   1.78977   1.79689   1.81432
 Alpha virt. eigenvalues --    1.82420   1.85116   1.85190   1.86621   1.88339
 Alpha virt. eigenvalues --    1.89196   1.91465   1.92426   1.95325   1.96076
 Alpha virt. eigenvalues --    1.97513   1.98636   2.00947   2.02384   2.04030
 Alpha virt. eigenvalues --    2.04555   2.05104   2.06155   2.08080   2.10170
 Alpha virt. eigenvalues --    2.10974   2.12543   2.14121   2.14966   2.16384
 Alpha virt. eigenvalues --    2.18016   2.20489   2.22844   2.23590   2.24776
 Alpha virt. eigenvalues --    2.27106   2.27327   2.29152   2.33084   2.34479
 Alpha virt. eigenvalues --    2.37008   2.40591   2.41801   2.43596   2.49019
 Alpha virt. eigenvalues --    2.51741   2.52561   2.53581   2.56008   2.58488
 Alpha virt. eigenvalues --    2.58870   2.61440   2.63781   2.66436   2.66939
 Alpha virt. eigenvalues --    2.67964   2.70895   2.72017   2.72721   2.73754
 Alpha virt. eigenvalues --    2.74186   2.76167   2.77611   2.78936   2.79809
 Alpha virt. eigenvalues --    2.81121   2.81601   2.82351   2.84075   2.84975
 Alpha virt. eigenvalues --    2.86629   2.87837   2.89209   2.92142   2.94639
 Alpha virt. eigenvalues --    2.96483   2.99056   3.02067   3.02759   3.04248
 Alpha virt. eigenvalues --    3.09008   3.10362   3.13258   3.15686   3.16082
 Alpha virt. eigenvalues --    3.16944   3.18503   3.19077   3.21710   3.26324
 Alpha virt. eigenvalues --    3.27396   3.29512   3.31529   3.34627   3.35960
 Alpha virt. eigenvalues --    3.42584   3.46375   3.47138   3.55559   3.56731
 Alpha virt. eigenvalues --    3.65389   3.68194   3.69079   3.75102   3.76488
 Alpha virt. eigenvalues --    3.80111   3.83991   3.84761   3.86884   3.88914
 Alpha virt. eigenvalues --    3.90508   3.93405   3.95810   3.96490   4.01161
 Alpha virt. eigenvalues --    4.04207   4.12831   4.13148   4.16705   4.16970
 Alpha virt. eigenvalues --    4.24631   4.26418   4.35681   4.51456   4.91989
 Alpha virt. eigenvalues --    4.92980   4.98496   5.11879   5.17942   5.18794
 Alpha virt. eigenvalues --    5.38834   5.56948   5.81467   5.88046   6.43666
 Alpha virt. eigenvalues --    6.56429   6.82327  23.66778  23.94937  23.98277
 Alpha virt. eigenvalues --   24.02366  24.07469  24.08437  24.08971  24.14132
 Alpha virt. eigenvalues --   24.18484  24.24212  24.27561  35.72900  50.08385
 Alpha virt. eigenvalues --   50.12619  66.94019
          Condensed to atoms (all electrons):
               1          2          3          4          5          6
     1  C    5.175191   0.386343   0.390099  -0.070208   0.006708   0.234586
     2  H    0.386343   0.472891  -0.023792   0.005078  -0.004129  -0.051433
     3  H    0.390099  -0.023792   0.534233  -0.009826   0.000725  -0.066181
     4  C   -0.070208   0.005078  -0.009826   5.178927   0.405023   0.246370
     5  H    0.006708  -0.004129   0.000725   0.405023   0.562210  -0.059404
     6  N    0.234586  -0.051433  -0.066181   0.246370  -0.059404   6.890302
     7  H    0.433590  -0.012070  -0.046009   0.011710   0.000705  -0.036056
     8  H   -0.002888   0.003717  -0.002737   0.393702  -0.031971  -0.094420
     9  H   -0.004623  -0.006159   0.003052   0.431016  -0.064882  -0.051315
    10  C   -0.292805   0.036334   0.013036  -0.040509  -0.030350   0.277446
    11  H    0.006798  -0.000308   0.001386  -0.028044   0.008389  -0.068921
    12  C    0.263040   0.002986   0.006701  -0.159779   0.014574  -0.315825
    13  C   -0.051754  -0.007616   0.020050  -0.048137   0.008406  -0.032549
    14  H    0.018857  -0.001430  -0.003567  -0.011921   0.003004  -0.038475
    15  O   -0.001531  -0.000044  -0.000558  -0.002723  -0.000023  -0.004709
    16  C   -0.117847  -0.003722   0.008997   0.007392   0.003231  -0.089954
    17  C    0.007077   0.001122  -0.002352  -0.002168   0.000704  -0.023708
    18  C    0.034265  -0.001483  -0.009475   0.017589  -0.000039   0.069849
    19  O   -0.000092  -0.000009   0.000018  -0.000152   0.000002  -0.000202
    20  C    0.002381   0.000155  -0.002076  -0.000977   0.000165  -0.006508
    21  C    0.010425   0.000287   0.006461   0.006717  -0.000601   0.037674
    22  H    0.008154   0.000678  -0.009467   0.000997  -0.000496   0.014388
    23  H   -0.000560  -0.000063  -0.000022   0.000152  -0.000009   0.000851
    24  H    0.000018   0.000002  -0.000025  -0.000007   0.000000   0.000018
    25  C   -0.002112  -0.000170   0.003271   0.001036   0.000069  -0.002038
    26  H   -0.000060  -0.000005   0.000062   0.000039   0.000001   0.000031
    27  F   -0.000193  -0.000013   0.000257  -0.000030   0.000007  -0.000037
               7          8          9         10         11         12
     1  C    0.433590  -0.002888  -0.004623  -0.292805   0.006798   0.263040
     2  H   -0.012070   0.003717  -0.006159   0.036334  -0.000308   0.002986
     3  H   -0.046009  -0.002737   0.003052   0.013036   0.001386   0.006701
     4  C    0.011710   0.393702   0.431016  -0.040509  -0.028044  -0.159779
     5  H    0.000705  -0.031971  -0.064882  -0.030350   0.008389   0.014574
     6  N   -0.036056  -0.094420  -0.051315   0.277446  -0.068921  -0.315825
     7  H    0.512087  -0.000631  -0.000548  -0.007012  -0.004338   0.003349
     8  H   -0.000631   0.539837  -0.019492   0.091991  -0.011409  -0.010265
     9  H   -0.000548  -0.019492   0.552755  -0.009068  -0.002329  -0.005997
    10  C   -0.007012   0.091991  -0.009068   8.317685   0.237725  -1.729791
    11  H   -0.004338  -0.011409  -0.002329   0.237725   0.499284   0.156854
    12  C    0.003349  -0.010265  -0.005997  -1.729791   0.156854  13.113912
    13  C   -0.039970  -0.002246  -0.005194  -0.771635   0.025819   2.042609
    14  H   -0.007274  -0.002434  -0.002059  -0.215496   0.019717   0.644929
    15  O    0.000512   0.000900   0.000017  -0.070479  -0.003856  -0.426030
    16  C   -0.005582  -0.003994   0.001398   0.712091   0.039771  -4.850492
    17  C   -0.001194  -0.001416  -0.000162  -0.122453   0.033921  -0.380507
    18  C    0.009149   0.002960  -0.001948   0.140249  -0.076053  -1.584548
    19  O   -0.000065   0.000048  -0.000001  -0.010188  -0.000813  -0.031433
    20  C    0.000446  -0.000316  -0.000057  -0.096546   0.009780  -0.652466
    21  C   -0.000218   0.002215  -0.000478   0.186343  -0.034505   0.380490
    22  H    0.002024   0.001106  -0.000072  -0.047586  -0.006828  -0.005069
    23  H    0.000180   0.000075   0.000016   0.007409  -0.002313  -0.003554
    24  H   -0.000002   0.000011  -0.000001  -0.000821  -0.000146  -0.001475
    25  C    0.000097  -0.000356  -0.000006   0.092907   0.006047  -0.233502
    26  H    0.000000  -0.000006   0.000001   0.002186   0.000067  -0.005685
    27  F    0.000018  -0.000004   0.000000   0.002592   0.000087  -0.005818
              13         14         15         16         17         18
     1  C   -0.051754   0.018857  -0.001531  -0.117847   0.007077   0.034265
     2  H   -0.007616  -0.001430  -0.000044  -0.003722   0.001122  -0.001483
     3  H    0.020050  -0.003567  -0.000558   0.008997  -0.002352  -0.009475
     4  C   -0.048137  -0.011921  -0.002723   0.007392  -0.002168   0.017589
     5  H    0.008406   0.003004  -0.000023   0.003231   0.000704  -0.000039
     6  N   -0.032549  -0.038475  -0.004709  -0.089954  -0.023708   0.069849
     7  H   -0.039970  -0.007274   0.000512  -0.005582  -0.001194   0.009149
     8  H   -0.002246  -0.002434   0.000900  -0.003994  -0.001416   0.002960
     9  H   -0.005194  -0.002059   0.000017   0.001398  -0.000162  -0.001948
    10  C   -0.771635  -0.215496  -0.070479   0.712091  -0.122453   0.140249
    11  H    0.025819   0.019717  -0.003856   0.039771   0.033921  -0.076053
    12  C    2.042609   0.644929  -0.426030  -4.850492  -0.380507  -1.584548
    13  C   13.819405   0.040888   0.777441  -2.218775  -0.864813  -3.442028
    14  H    0.040888   0.496522   0.011728  -0.041284   0.024435  -0.133991
    15  O    0.777441   0.011728   8.094417  -0.045434   0.054795  -0.073480
    16  C   -2.218775  -0.041284  -0.045434  16.288121   0.211338  -2.336250
    17  C   -0.864813   0.024435   0.054795   0.211338  14.690663  -5.389033
    18  C   -3.442028  -0.133991  -0.073480  -2.336250  -5.389033  19.123131
    19  O   -0.111600   0.001739  -0.023063   0.112792   0.335670   0.046436
    20  C   -3.979225   0.001547  -0.042471  -1.898920  -1.882790   3.854419
    21  C    1.451000  -0.038001  -0.008626  -1.998801   0.428342  -2.053781
    22  H   -0.100983  -0.003911   0.000952  -0.258660  -0.003599   0.917111
    23  H    0.001516  -0.002236   0.092151  -0.155841   0.050462   0.019141
    24  H   -0.029356  -0.000103   0.000292  -0.102132  -0.170814   0.100091
    25  C   -0.561403  -0.008574  -0.007278   1.405959  -0.783726  -2.372964
    26  H    0.008901  -0.000186   0.000011   0.108945   0.058716  -0.169303
    27  F   -0.006260  -0.000548  -0.000012   0.040359   0.016093  -0.062005
              19         20         21         22         23         24
     1  C   -0.000092   0.002381   0.010425   0.008154  -0.000560   0.000018
     2  H   -0.000009   0.000155   0.000287   0.000678  -0.000063   0.000002
     3  H    0.000018  -0.002076   0.006461  -0.009467  -0.000022  -0.000025
     4  C   -0.000152  -0.000977   0.006717   0.000997   0.000152  -0.000007
     5  H    0.000002   0.000165  -0.000601  -0.000496  -0.000009   0.000000
     6  N   -0.000202  -0.006508   0.037674   0.014388   0.000851   0.000018
     7  H   -0.000065   0.000446  -0.000218   0.002024   0.000180  -0.000002
     8  H    0.000048  -0.000316   0.002215   0.001106   0.000075   0.000011
     9  H   -0.000001  -0.000057  -0.000478  -0.000072   0.000016  -0.000001
    10  C   -0.010188  -0.096546   0.186343  -0.047586   0.007409  -0.000821
    11  H   -0.000813   0.009780  -0.034505  -0.006828  -0.002313  -0.000146
    12  C   -0.031433  -0.652466   0.380490  -0.005069  -0.003554  -0.001475
    13  C   -0.111600  -3.979225   1.451000  -0.100983   0.001516  -0.029356
    14  H    0.001739   0.001547  -0.038001  -0.003911  -0.002236  -0.000103
    15  O   -0.023063  -0.042471  -0.008626   0.000952   0.092151   0.000292
    16  C    0.112792  -1.898920  -1.998801  -0.258660  -0.155841  -0.102132
    17  C    0.335670  -1.882790   0.428342  -0.003599   0.050462  -0.170814
    18  C    0.046436   3.854419  -2.053781   0.917111   0.019141   0.100091
    19  O    8.082207  -0.340986   0.003232  -0.000761   0.249080  -0.022960
    20  C   -0.340986  11.724640  -1.434775   0.146218   0.049723   0.582332
    21  C    0.003232  -1.434775  10.773472  -0.134319   0.015372   0.025468
    22  H   -0.000761   0.146218  -0.134319   0.490772   0.001557   0.004637
    23  H    0.249080   0.049723   0.015372   0.001557   0.350049   0.001666
    24  H   -0.022960   0.582332   0.025468   0.004637   0.001666   0.431461
    25  C    0.016101   0.448599  -1.311947  -0.243229  -0.009911  -0.074740
    26  H    0.001558  -0.107179  -0.193590  -0.007895  -0.000228  -0.013163
    27  F    0.000103  -0.012790   0.341693  -0.038338   0.000165   0.000941
              25         26         27
     1  C   -0.002112  -0.000060  -0.000193
     2  H   -0.000170  -0.000005  -0.000013
     3  H    0.003271   0.000062   0.000257
     4  C    0.001036   0.000039  -0.000030
     5  H    0.000069   0.000001   0.000007
     6  N   -0.002038   0.000031  -0.000037
     7  H    0.000097   0.000000   0.000018
     8  H   -0.000356  -0.000006  -0.000004
     9  H   -0.000006   0.000001   0.000000
    10  C    0.092907   0.002186   0.002592
    11  H    0.006047   0.000067   0.000087
    12  C   -0.233502  -0.005685  -0.005818
    13  C   -0.561403   0.008901  -0.006260
    14  H   -0.008574  -0.000186  -0.000548
    15  O   -0.007278   0.000011  -0.000012
    16  C    1.405959   0.108945   0.040359
    17  C   -0.783726   0.058716   0.016093
    18  C   -2.372964  -0.169303  -0.062005
    19  O    0.016101   0.001558   0.000103
    20  C    0.448599  -0.107179  -0.012790
    21  C   -1.311947  -0.193590   0.341693
    22  H   -0.243229  -0.007895  -0.038338
    23  H   -0.009911  -0.000228   0.000165
    24  H   -0.074740  -0.013163   0.000941
    25  C    9.144106   0.614598  -0.213095
    26  H    0.614598   0.434226  -0.019266
    27  F   -0.213095  -0.019266   9.150728
 Mulliken charges:
               1
     1  C   -0.432861
     2  H    0.202852
     3  H    0.187738
     4  C   -0.331268
     5  H    0.177979
     6  N    0.170220
     7  H    0.187099
     8  H    0.148021
     9  H    0.186135
    10  C   -0.673253
    11  H    0.194217
    12  C   -0.227206
    13  C    0.077509
    14  H    0.248123
    15  O   -0.322900
    16  C    1.187296
    17  C   -0.284603
    18  C   -0.628012
    19  O   -0.306663
    20  C   -0.362324
    21  C   -0.459549
    22  H    0.272619
    23  H    0.335170
    24  H    0.268808
    25  C    0.092261
    26  H    0.287225
    27  F   -0.194635
 Sum of Mulliken charges =   0.00000
 Mulliken charges with hydrogens summed into heavy atoms:
               1
     1  C    0.144829
     4  C    0.180868
     6  N    0.170220
    10  C   -0.479036
    12  C    0.020917
    13  C    0.077509
    15  O   -0.322900
    16  C    1.187296
    17  C   -0.284603
    18  C   -0.355393
    19  O    0.028507
    20  C   -0.093516
    21  C   -0.459549
    25  C    0.379486
    27  F   -0.194635
 Electronic spatial extent (au):  <R**2>=           4214.8005
 Charge=              0.0000 electrons
 Dipole moment (field-independent basis, Debye):
    X=             -3.8495    Y=              4.0212    Z=              0.9170  Tot=              5.6417
 Quadrupole moment (field-independent basis, Debye-Ang):
   XX=            -59.5089   YY=           -106.9182   ZZ=            -84.4898
   XY=             -4.5916   XZ=             -0.3919   YZ=             -0.0642
 Traceless Quadrupole moment (field-independent basis, Debye-Ang):
   XX=             24.1301   YY=            -23.2793   ZZ=             -0.8508
   XY=             -4.5916   XZ=             -0.3919   YZ=             -0.0642
 Octapole moment (field-independent basis, Debye-Ang**2):
  XXX=            -46.3514  YYY=             22.9172  ZZZ=              1.9130  XYY=            -18.8932
  XXY=             37.2582  XXZ=             12.8953  XZZ=            -18.2009  YZZ=              3.3614
  YYZ=              2.4695  XYZ=              3.8189
 Hexadecapole moment (field-independent basis, Debye-Ang**3):
 XXXX=          -3229.9422 YYYY=          -1309.4887 ZZZZ=           -293.5883 XXXY=              0.4490
 XXXZ=             24.5482 YYYX=            -18.3634 YYYZ=             -2.6349 ZZZX=            -14.8378
 ZZZY=             -1.5341 XXYY=           -915.5343 XXZZ=           -685.2300 YYZZ=           -244.9838
 XXYZ=              9.4530 YYXZ=             -3.0274 ZZXY=              5.5371
 N-N= 9.451750583073D+02 E-N=-3.600951886043D+03  KE= 7.283455086284D+02
 D1PCM: PCM CHGder 1st derivatives, ID1Alg=3 FixD1E=F DoIter=F DoCFld=F I1PDM=6.
 Calling FoFJK, ICntrl=  10005127 FMM=F ISym2X=0 I1Cent= 0 IOpClX= 0 NMat=1 NMatS=1 NMatT=0.
 ***** Axes restored to original set *****
 -------------------------------------------------------------------
 Center     Atomic                   Forces (Hartrees/Bohr)
 Number     Number              X              Y              Z
 -------------------------------------------------------------------
      1        6           0.000039553   -0.000064478    0.000113059
      2        1          -0.000067037    0.000030923    0.000092479
      3        1           0.000050373    0.000033915    0.000020310
      4        6           0.000185801   -0.000083442   -0.000382404
      5        1          -0.000082584   -0.000108173    0.000058476
      6        7          -0.000626884   -0.000659327    0.000066716
      7        1           0.000037231    0.000081965    0.000036770
      8        1          -0.000067662    0.000064614    0.000045772
      9        1          -0.000050053    0.000018836    0.000072350
     10        6           0.000350670    0.000639896   -0.000548071
     11        1           0.000018557    0.000089219   -0.000013803
     12        6           0.000274051    0.000746826    0.000726018
     13        6           0.001087866   -0.001222990    0.000259297
     14        1          -0.000310433   -0.000134426   -0.000287263
     15        8          -0.002546147    0.002206151    0.000370516
     16        6          -0.003231380   -0.001508245   -0.000724385
     17        6          -0.000935089   -0.002105203   -0.000735615
     18        6          -0.002343448    0.011386685    0.003379565
     19        8          -0.000078889    0.000541184    0.000153118
     20        6           0.006583385    0.001808434    0.000846361
     21        6           0.004351051   -0.009932939   -0.002713806
     22        1          -0.001591166    0.000482559    0.000134707
     23        1           0.000002357   -0.000224114   -0.000092002
     24        1          -0.000704459    0.001446954    0.000340579
     25        6          -0.007775846    0.010242069    0.002840756
     26        1           0.000468773    0.001193085    0.000374515
     27        9           0.006961410   -0.014969979   -0.004434016
 -------------------------------------------------------------------
 Cartesian Forces:  Max     0.014969979 RMS     0.003198753

 GradGradGradGradGradGradGradGradGradGradGradGradGradGradGradGradGradGrad
 Berny optimization.
 FormGI is forming the generalized inverse of G from B-inverse, IUseBI=4.
 Internal  Forces:  Max     0.017086263 RMS     0.002718338
 Search for a local minimum.
 Step number   1 out of a maximum of  134
 All quantities printed in internal units (Hartrees-Bohrs-Radians)
 Mixed Optimization -- RFO/linear search
 Second derivative matrix not updated -- first step.
 ITU=  0
     Eigenvalues ---    0.00863   0.00914   0.01322   0.01412   0.01562
     Eigenvalues ---    0.01719   0.01756   0.01833   0.01921   0.02063
     Eigenvalues ---    0.02091   0.02100   0.02154   0.02165   0.02194
     Eigenvalues ---    0.02218   0.02222   0.02231   0.02463   0.02839
     Eigenvalues ---    0.07463   0.07566   0.07675   0.07678   0.15894
     Eigenvalues ---    0.15997   0.16000   0.16000   0.16000   0.16000
     Eigenvalues ---    0.16000   0.16000   0.16000   0.16000   0.16000
     Eigenvalues ---    0.16000   0.22001   0.22025   0.22373   0.23491
     Eigenvalues ---    0.24590   0.24968   0.24991   0.24994   0.24999
     Eigenvalues ---    0.25000   0.25000   0.25000   0.34691   0.34718
     Eigenvalues ---    0.34721   0.34816   0.34822   0.35106   0.35164
     Eigenvalues ---    0.35261   0.35434   0.35474   0.35527   0.36636
     Eigenvalues ---    0.37115   0.37220   0.40200   0.41283   0.41635
     Eigenvalues ---    0.44867   0.45319   0.45762   0.47016   0.48087
     Eigenvalues ---    0.49102   0.50675   0.52960   0.63634   0.65174
 RFO step:  Lambda=-2.73787572D-03 EMin= 8.63191895D-03
 Linear search not attempted -- first point.
 Iteration  1 RMS(Cart)=  0.01606267 RMS(Int)=  0.00015774
 Iteration  2 RMS(Cart)=  0.00028416 RMS(Int)=  0.00004177
 Iteration  3 RMS(Cart)=  0.00000003 RMS(Int)=  0.00004177
 Variable       Old X    -DE/DX   Delta X   Delta X   Delta X     New X
                                 (Linear)    (Quad)   (Total)
    R1        2.05409  -0.00003   0.00000  -0.00010  -0.00010   2.05399
    R2        2.06131  -0.00002   0.00000  -0.00006  -0.00006   2.06125
    R3        2.76399   0.00027   0.00000   0.00072   0.00072   2.76470
    R4        2.05974  -0.00004   0.00000  -0.00010  -0.00010   2.05964
    R5        2.06180  -0.00008   0.00000  -0.00023  -0.00023   2.06157
    R6        2.75673   0.00008   0.00000   0.00022   0.00022   2.75695
    R7        2.05503  -0.00002   0.00000  -0.00007  -0.00007   2.05497
    R8        2.06135  -0.00005   0.00000  -0.00015  -0.00015   2.06121
    R9        2.48176  -0.00088   0.00000  -0.00138  -0.00138   2.48037
   R10        2.04912   0.00000   0.00000   0.00000   0.00000   2.04912
   R11        2.64401   0.00024   0.00000   0.00052   0.00052   2.64452
   R12        2.75517   0.00026   0.00000   0.00069   0.00069   2.75585
   R13        2.05966  -0.00038   0.00000  -0.00108  -0.00108   2.05858
   R14        2.47066  -0.00319   0.00000  -0.00488  -0.00488   2.46579
   R15        2.69846  -0.00184   0.00000  -0.00444  -0.00444   2.69403
   R16        2.68919   0.00093   0.00000   0.00299   0.00289   2.69209
   R17        2.66382  -0.00110   0.00000  -0.00241  -0.00241   2.66142
   R18        2.56991  -0.00034   0.00000  -0.00064  -0.00064   2.56927
   R19        2.61351  -0.00094   0.00000  -0.00134  -0.00143   2.61207
   R20        2.62868  -0.00995   0.00000  -0.02158  -0.02149   2.60719
   R21        2.05253  -0.00051   0.00000  -0.00143  -0.00143   2.05109
   R22        1.85890  -0.00003   0.00000  -0.00007  -0.00007   1.85884
   R23        2.04977  -0.00082   0.00000  -0.00230  -0.00230   2.04747
   R24        2.64343  -0.00050   0.00000  -0.00116  -0.00116   2.64227
   R25        2.62565  -0.01043   0.00000  -0.02256  -0.02247   2.60318
   R26        2.60782  -0.01709   0.00000  -0.03460  -0.03460   2.57322
   R27        2.04827  -0.00035   0.00000  -0.00097  -0.00097   2.04730
    A1        1.90683  -0.00010   0.00000  -0.00089  -0.00089   1.90594
    A2        1.89415   0.00007   0.00000   0.00038   0.00038   1.89453
    A3        1.90364  -0.00007   0.00000  -0.00031  -0.00031   1.90332
    A4        1.92186   0.00004   0.00000   0.00017   0.00017   1.92203
    A5        1.91640  -0.00004   0.00000  -0.00009  -0.00009   1.91630
    A6        1.92067   0.00010   0.00000   0.00073   0.00073   1.92140
    A7        1.90638  -0.00019   0.00000  -0.00137  -0.00137   1.90501
    A8        1.91310   0.00001   0.00000  -0.00027  -0.00027   1.91283
    A9        1.90602   0.00008   0.00000   0.00040   0.00040   1.90642
   A10        1.91929   0.00002   0.00000   0.00019   0.00019   1.91947
   A11        1.90556  -0.00001   0.00000   0.00010   0.00010   1.90566
   A12        1.91338   0.00008   0.00000   0.00095   0.00095   1.91433
   A13        2.03887   0.00014   0.00000   0.00057   0.00057   2.03943
   A14        2.12855   0.00016   0.00000   0.00063   0.00063   2.12918
   A15        2.11547  -0.00030   0.00000  -0.00120  -0.00120   2.11426
   A16        2.02499   0.00002   0.00000  -0.00006  -0.00006   2.02493
   A17        2.19229  -0.00019   0.00000  -0.00085  -0.00085   2.19144
   A18        2.06560   0.00018   0.00000   0.00093   0.00093   2.06653
   A19        2.09383  -0.00040   0.00000  -0.00179  -0.00179   2.09204
   A20        2.08681   0.00043   0.00000   0.00228   0.00228   2.08909
   A21        2.09276  -0.00003   0.00000  -0.00057  -0.00057   2.09219
   A22        1.90849   0.00137   0.00000   0.00567   0.00564   1.91414
   A23        2.17436   0.00010   0.00000   0.00063   0.00061   2.17497
   A24        2.19847  -0.00146   0.00000  -0.00552  -0.00555   2.19293
   A25        2.10108   0.00094   0.00000   0.00246   0.00251   2.10359
   A26        2.13207  -0.00147   0.00000  -0.00709  -0.00704   2.12503
   A27        2.05002   0.00053   0.00000   0.00462   0.00452   2.05453
   A28        2.09770   0.00086   0.00000   0.00167   0.00176   2.09946
   A29        2.10654  -0.00139   0.00000  -0.00199  -0.00218   2.10436
   A30        2.07894   0.00052   0.00000   0.00032   0.00042   2.07936
   A31        2.12016  -0.00634   0.00000  -0.02844  -0.02834   2.09181
   A32        2.07469   0.00480   0.00000   0.02422   0.02417   2.09886
   A33        2.08834   0.00154   0.00000   0.00422   0.00417   2.09251
   A34        1.86351   0.00044   0.00000   0.00271   0.00271   1.86621
   A35        2.06896   0.00088   0.00000   0.00527   0.00532   2.07428
   A36        2.10471   0.00118   0.00000   0.00760   0.00750   2.11222
   A37        2.10951  -0.00207   0.00000  -0.01286  -0.01281   2.09669
   A38        2.09409   0.01273   0.00000   0.04889   0.04908   2.14317
   A39        2.08879  -0.00644   0.00000  -0.02473  -0.02483   2.06395
   A40        2.10031  -0.00629   0.00000  -0.02415  -0.02425   2.07606
   A41        2.09085  -0.00672   0.00000  -0.03067  -0.03057   2.06028
   A42        2.08880   0.00469   0.00000   0.02353   0.02348   2.11228
   A43        2.10354   0.00202   0.00000   0.00714   0.00709   2.11063
    D1       -0.12752   0.00005   0.00000   0.00222   0.00222  -0.12531
    D2        3.04039   0.00005   0.00000   0.00248   0.00248   3.04287
    D3        1.95890  -0.00001   0.00000   0.00147   0.00147   1.96037
    D4       -1.15637   0.00000   0.00000   0.00173   0.00173  -1.15464
    D5       -2.20937   0.00002   0.00000   0.00194   0.00194  -2.20743
    D6        0.95855   0.00003   0.00000   0.00220   0.00220   0.96075
    D7       -1.03320  -0.00002   0.00000  -0.00021  -0.00021  -1.03341
    D8        2.08229  -0.00002   0.00000  -0.00044  -0.00044   2.08185
    D9       -3.13331   0.00006   0.00000   0.00087   0.00087  -3.13244
   D10       -0.01782   0.00006   0.00000   0.00063   0.00063  -0.01719
   D11        1.04993  -0.00004   0.00000  -0.00048  -0.00048   1.04945
   D12       -2.11777  -0.00004   0.00000  -0.00071  -0.00071  -2.11848
   D13       -3.13776  -0.00003   0.00000  -0.00104  -0.00104  -3.13880
   D14        0.03124  -0.00006   0.00000  -0.00193  -0.00193   0.02931
   D15        0.03130  -0.00003   0.00000  -0.00080  -0.00080   0.03050
   D16       -3.08289  -0.00005   0.00000  -0.00169  -0.00169  -3.08458
   D17       -3.10583   0.00005   0.00000   0.00168   0.00168  -3.10416
   D18       -0.11422   0.00002   0.00000   0.00103   0.00102  -0.11320
   D19        0.06374   0.00003   0.00000   0.00078   0.00078   0.06453
   D20        3.05535  -0.00001   0.00000   0.00013   0.00013   3.05548
   D21        1.53532  -0.00013   0.00000  -0.00893  -0.00895   1.52636
   D22       -1.66851   0.00006   0.00000   0.00403   0.00405  -1.66445
   D23       -1.45578  -0.00013   0.00000  -0.00852  -0.00855  -1.46432
   D24        1.62359   0.00006   0.00000   0.00444   0.00446   1.62805
   D25       -3.09212  -0.00031   0.00000  -0.01523  -0.01520  -3.10733
   D26        0.05634  -0.00028   0.00000  -0.01348  -0.01346   0.04288
   D27       -0.02309   0.00002   0.00000   0.00033   0.00031  -0.02278
   D28        3.12538   0.00005   0.00000   0.00207   0.00205   3.12743
   D29        0.00993   0.00001   0.00000   0.00015   0.00015   0.01009
   D30       -3.13242   0.00004   0.00000   0.00173   0.00173  -3.13069
   D31       -3.13822  -0.00003   0.00000  -0.00156  -0.00156  -3.13978
   D32        0.00262   0.00000   0.00000   0.00002   0.00001   0.00263
   D33        3.13275  -0.00002   0.00000  -0.00110  -0.00110   3.13165
   D34       -0.00959  -0.00003   0.00000  -0.00166  -0.00167  -0.01126
   D35       -0.00216   0.00001   0.00000   0.00061   0.00060  -0.00156
   D36        3.13868   0.00000   0.00000   0.00004   0.00003   3.13871
   D37        0.00138   0.00000   0.00000   0.00002   0.00002   0.00140
   D38       -3.13947  -0.00004   0.00000  -0.00153  -0.00153  -3.14100
   D39       -3.13981  -0.00004   0.00000  -0.00190  -0.00190   3.14147
   D40       -0.00119   0.00000   0.00000  -0.00035  -0.00035  -0.00154
   D41        0.00103  -0.00001   0.00000  -0.00034  -0.00034   0.00069
   D42        3.13966   0.00003   0.00000   0.00121   0.00121   3.14087
   D43        0.00024  -0.00002   0.00000  -0.00089  -0.00090  -0.00065
   D44        3.13973   0.00004   0.00000   0.00166   0.00166   3.14139
   D45       -3.14059  -0.00001   0.00000  -0.00033  -0.00034  -3.14093
   D46       -0.00110   0.00006   0.00000   0.00222   0.00222   0.00111
   D47       -0.00081   0.00000   0.00000   0.00012   0.00013  -0.00068
   D48       -3.13970  -0.00002   0.00000  -0.00076  -0.00075  -3.14045
   D49        3.13775   0.00005   0.00000   0.00173   0.00173   3.13948
   D50       -0.00115   0.00003   0.00000   0.00086   0.00086  -0.00029
   D51        0.00128   0.00001   0.00000   0.00051   0.00052   0.00180
   D52        3.14015   0.00004   0.00000   0.00142   0.00142   3.14157
   D53       -3.13819  -0.00005   0.00000  -0.00206  -0.00206  -3.14025
   D54        0.00068  -0.00003   0.00000  -0.00115  -0.00116  -0.00047
         Item               Value     Threshold  Converged?
 Maximum Force            0.017086     0.000450     NO 
 RMS     Force            0.002718     0.000300     NO 
 Maximum Displacement     0.086998     0.001800     NO 
 RMS     Displacement     0.016107     0.001200     NO 
 Predicted change in Energy=-1.383130D-03
 GradGradGradGradGradGradGradGradGradGradGradGradGradGradGradGradGradGrad

                          Input orientation:                          
 ---------------------------------------------------------------------
 Center     Atomic      Atomic             Coordinates (Angstroms)
 Number     Number       Type             X           Y           Z
 ---------------------------------------------------------------------
      1          6           0        0.315066    0.064585    8.586194
      2          1           0        1.111153    0.801132    8.514439
      3          1           0       -0.474767    0.451688    9.231241
      4          6           0        0.288362    0.668835    6.171421
      5          1           0        0.054589    1.708470    6.405189
      6          7           0       -0.209239   -0.186311    7.243591
      7          1           0        0.718703   -0.855575    9.008447
      8          1           0       -0.178842    0.392958    5.229007
      9          1           0        1.370072    0.552718    6.093075
     10          6           0       -1.107784   -1.114159    7.010092
     11          1           0       -1.426474   -1.218954    5.978943
     12          6           0       -1.695041   -1.939684    7.975503
     13          6           0       -2.649664   -2.965114    7.570624
     14          1           0       -1.334488   -1.909381    9.003011
     15          8           0       -2.012885   -4.062984    7.267642
     16          6           0       -4.065650   -2.799702    7.573236
     17          6           0       -4.920597   -3.875967    7.198835
     18          6           0       -4.668568   -1.578363    7.931427
     19          8           0       -4.394359   -5.078760    6.845454
     20          6           0       -6.293131   -3.712685    7.188675
     21          6           0       -6.042812   -1.458266    7.908953
     22          1           0       -4.056360   -0.731951    8.226150
     23          1           0       -3.416770   -4.995443    6.915829
     24          1           0       -6.917030   -4.549849    6.899161
     25          6           0       -6.876366   -2.493087    7.545686
     26          1           0       -7.952171   -2.365358    7.538751
     27          9           0       -6.591290   -0.262860    8.261615
 ---------------------------------------------------------------------
                    Distance matrix (angstroms):
                    1          2          3          4          5
     1  C    0.000000
     2  H    1.086925   0.000000
     3  H    1.090766   1.775122   0.000000
     4  C    2.489369   2.486810   3.161015   0.000000
     5  H    2.743535   2.527553   3.137879   1.090934   0.000000
     6  N    1.463019   2.081714   2.104352   1.458914   2.088711
     7  H    1.089915   1.772778   1.784081   3.249267   3.713802
     8  H    3.409175   3.553133   4.013589   1.087442   1.780019
     9  H    2.750810   2.447806   3.641666   1.090743   1.778672
    10  C    2.428587   3.294705   2.790357   2.414882   3.111952
    11  H    3.387947   4.116922   3.778126   2.557628   3.308330
    12  C    2.903543   3.959450   2.963883   3.740718   4.340059
    13  C    4.358908   5.405474   4.377484   4.878048   5.523912
    14  H    2.606013   3.683306   2.523065   4.159176   4.665518
    15  O    4.918816   5.913860   5.157886   5.374714   6.190957
    16  C    5.331125   6.375827   5.120055   5.740493   6.218064
    17  C    6.698125   7.745198   6.528758   6.988853   7.521189
    18  C    5.288156   6.277506   4.837209   5.720024   5.953224
    19  O    7.187687   8.226136   7.186170   7.444263   8.127328
    20  C    7.738804   8.772435   7.440930   7.971735   8.384290
    21  C    6.572696   7.526667   6.033199   6.901256   7.033336
    22  H    4.457966   5.397838   3.903719   5.006069   5.115805
    23  H    6.505428   7.527146   6.609671   6.809272   7.566606
    24  H    8.743128   9.782323   8.482731   8.926474   9.381580
    25  C    7.703313   8.694298   7.245224   7.951080   8.184861
    26  H    8.680378   9.649998   8.167732   8.887198   9.054791
    27  F    6.921728   7.779694   6.233988   7.250281   7.176362
                    6          7          8          9         10
     6  N    0.000000
     7  H    2.103261   0.000000
     8  H    2.096431   4.080268   0.000000
     9  H    2.089037   3.302570   1.780806   0.000000
    10  C    1.312557   2.719622   2.511293   3.123967   0.000000
    11  H    2.036504   3.729842   2.171923   3.312479   1.084349
    12  C    2.411974   2.840497   3.909388   4.376131   1.399422
    13  C    3.712731   4.226509   4.781713   5.542254   2.473384
[...]
 Alpha virt. eigenvalues --    0.08440   0.09022   0.09107   0.09435   0.10023
 Alpha virt. eigenvalues --    0.10422   0.11590   0.12205   0.12821   0.13300
 Alpha virt. eigenvalues --    0.13963   0.14335   0.15023   0.15507   0.16131
 Alpha virt. eigenvalues --    0.16230   0.16507   0.17022   0.17142   0.17248
 Alpha virt. eigenvalues --    0.17532   0.18460   0.18492   0.18769   0.19008
 Alpha virt. eigenvalues --    0.19340   0.19821   0.20286   0.20691   0.20836
 Alpha virt. eigenvalues --    0.21028   0.21510   0.22050   0.22288   0.22512
 Alpha virt. eigenvalues --    0.23366   0.23902   0.24209   0.24360   0.24669
 Alpha virt. eigenvalues --    0.25303   0.25581   0.26597   0.27437   0.28104
 Alpha virt. eigenvalues --    0.28348   0.28904   0.29017   0.29228   0.29837
 Alpha virt. eigenvalues --    0.30421   0.31359   0.31778   0.32028   0.32298
 Alpha virt. eigenvalues --    0.32529   0.33061   0.33768   0.34833   0.35147
 Alpha virt. eigenvalues --    0.35374   0.35873   0.36328   0.36521   0.37288
 Alpha virt. eigenvalues --    0.37827   0.38288   0.38486   0.38915   0.39164
 Alpha virt. eigenvalues --    0.39771   0.40508   0.40845   0.42113   0.43043
 Alpha virt. eigenvalues --    0.43264   0.43868   0.43952   0.45119   0.45584
 Alpha virt. eigenvalues --    0.46162   0.47347   0.49540   0.49960   0.51041
 Alpha virt. eigenvalues --    0.51486   0.52590   0.53566   0.54295   0.54799
 Alpha virt. eigenvalues --    0.55777   0.57760   0.58263   0.59726   0.60319
 Alpha virt. eigenvalues --    0.60945   0.61804   0.64192   0.64884   0.65540
 Alpha virt. eigenvalues --    0.66339   0.66893   0.67689   0.68122   0.68520
 Alpha virt. eigenvalues --    0.69345   0.70678   0.71489   0.71743   0.72394
 Alpha virt. eigenvalues --    0.72860   0.73268   0.74153   0.74646   0.75111
 Alpha virt. eigenvalues --    0.75883   0.77193   0.77756   0.79152   0.80119
 Alpha virt. eigenvalues --    0.80350   0.80891   0.82527   0.83503   0.85139
 Alpha virt. eigenvalues --    0.85446   0.86197   0.89313   0.90435   0.91426
 Alpha virt. eigenvalues --    0.92349   0.92868   0.93675   0.96518   0.97051
 Alpha virt. eigenvalues --    0.97271   0.99150   0.99584   1.01221   1.02237
 Alpha virt. eigenvalues --    1.02740   1.05245   1.05975   1.07249   1.07566
 Alpha virt. eigenvalues --    1.09194   1.10368   1.10747   1.13105   1.14630
 Alpha virt. eigenvalues --    1.16680   1.16908   1.17811   1.19397   1.21061
 Alpha virt. eigenvalues --    1.21090   1.22922   1.23848   1.26038   1.27692
 Alpha virt. eigenvalues --    1.29287   1.30734   1.32495   1.35273   1.36251
 Alpha virt. eigenvalues --    1.38065   1.39759   1.41809   1.46835   1.47757
 Alpha virt. eigenvalues --    1.49451   1.51256   1.51763   1.52523   1.53073
 Alpha virt. eigenvalues --    1.53594   1.54041   1.56452   1.57808   1.58888
 Alpha virt. eigenvalues --    1.60403   1.61866   1.62934   1.63365   1.63804
 Alpha virt. eigenvalues --    1.64433   1.64911   1.65469   1.68081   1.68211
 Alpha virt. eigenvalues --    1.69268   1.71100   1.73423   1.74154   1.74548
 Alpha virt. eigenvalues --    1.75584   1.77466   1.78996   1.79670   1.81439
 Alpha virt. eigenvalues --    1.82757   1.85196   1.85381   1.86843   1.88608
 Alpha virt. eigenvalues --    1.90202   1.91754   1.91864   1.96031   1.96424
 Alpha virt. eigenvalues --    1.97784   1.98362   2.00892   2.02463   2.04119
 Alpha virt. eigenvalues --    2.05071   2.05654   2.06595   2.08346   2.10304
 Alpha virt. eigenvalues --    2.10934   2.12182   2.14321   2.15072   2.16254
 Alpha virt. eigenvalues --    2.17674   2.20796   2.23406   2.23878   2.25082
 Alpha virt. eigenvalues --    2.26807   2.27316   2.29102   2.32986   2.35035
 Alpha virt. eigenvalues --    2.37583   2.41027   2.42906   2.44020   2.49290
 Alpha virt. eigenvalues --    2.51859   2.52304   2.53714   2.56060   2.58427
 Alpha virt. eigenvalues --    2.59568   2.60726   2.63843   2.66419   2.66753
 Alpha virt. eigenvalues --    2.68321   2.70591   2.72108   2.72948   2.73650
 Alpha virt. eigenvalues --    2.74625   2.76100   2.78279   2.78904   2.80326
 Alpha virt. eigenvalues --    2.81666   2.81780   2.82556   2.83727   2.84572
 Alpha virt. eigenvalues --    2.86689   2.87837   2.89362   2.92334   2.94845
 Alpha virt. eigenvalues --    2.97036   2.98734   3.02014   3.03074   3.04336
 Alpha virt. eigenvalues --    3.09425   3.10612   3.14415   3.16360   3.16446
 Alpha virt. eigenvalues --    3.17378   3.18563   3.19230   3.23016   3.26377
 Alpha virt. eigenvalues --    3.28192   3.30946   3.32587   3.35097   3.36148
 Alpha virt. eigenvalues --    3.43054   3.46998   3.47530   3.55743   3.57440
 Alpha virt. eigenvalues --    3.66203   3.68293   3.69920   3.75216   3.76866
 Alpha virt. eigenvalues --    3.79387   3.83629   3.84750   3.87111   3.88880
 Alpha virt. eigenvalues --    3.90695   3.94516   3.95888   3.96537   4.01357
 Alpha virt. eigenvalues --    4.05828   4.12933   4.14387   4.16969   4.20009
 Alpha virt. eigenvalues --    4.25122   4.26473   4.35768   4.51965   4.92071
 Alpha virt. eigenvalues --    4.95079   4.98557   5.12004   5.17946   5.18764
 Alpha virt. eigenvalues --    5.38814   5.57086   5.82128   5.88214   6.43658
 Alpha virt. eigenvalues --    6.56814   6.85074  23.67741  23.95718  23.98584
 Alpha virt. eigenvalues --   24.02439  24.07652  24.08992  24.09277  24.15841
 Alpha virt. eigenvalues --   24.20348  24.24373  24.29176  35.72948  50.08624
 Alpha virt. eigenvalues --   50.12886  66.94121
          Condensed to atoms (all electrons):
               1          2          3          4          5          6
     1  C    5.171216   0.389218   0.381676  -0.065347  -0.002081   0.235608
     2  H    0.389218   0.475453  -0.025530   0.005414  -0.005431  -0.050728
     3  H    0.381676  -0.025530   0.541835  -0.009687   0.000484  -0.066758
     4  C   -0.065347   0.005414  -0.009687   5.176362   0.407738   0.246081
     5  H   -0.002081  -0.005431   0.000484   0.407738   0.559574  -0.056212
     6  N    0.235608  -0.050728  -0.066758   0.246081  -0.056212   6.896174
     7  H    0.436747  -0.013254  -0.045572   0.011050   0.001226  -0.037579
     8  H   -0.001329   0.004070  -0.002949   0.392632  -0.029473  -0.095667
     9  H    0.003706  -0.005416   0.002598   0.430176  -0.064743  -0.053362
    10  C   -0.281478   0.032209   0.021724  -0.053392  -0.023276   0.279607
    11  H    0.003696  -0.000510   0.002069  -0.027542   0.007574  -0.070950
    12  C    0.245582   0.001594   0.012282  -0.153676   0.011803  -0.316056
    13  C   -0.044304  -0.005965   0.018096  -0.045129   0.007412  -0.030394
    14  H    0.012152  -0.001318  -0.003695  -0.011129   0.002662  -0.040263
    15  O   -0.001985   0.000026  -0.000701  -0.003066  -0.000037  -0.005190
    16  C   -0.113715  -0.003887   0.008232   0.005184   0.004630  -0.098214
    17  C    0.005351   0.001072  -0.002199  -0.002134   0.000581  -0.022528
    18  C    0.037583  -0.000039  -0.015415   0.019012  -0.000809   0.061050
    19  O   -0.000051  -0.000004   0.000009  -0.000163   0.000002  -0.000209
    20  C    0.002971   0.000280  -0.002854  -0.001189   0.000087  -0.007813
    21  C    0.007589  -0.000118   0.009311   0.007561  -0.000622   0.043759
    22  H    0.008351   0.000998  -0.010401   0.000790  -0.000649   0.013959
    23  H   -0.000611  -0.000060  -0.000035   0.000144  -0.000010   0.000811
    24  H    0.000027   0.000003  -0.000033  -0.000014  -0.000001   0.000015
    25  C   -0.002503  -0.000249   0.004147   0.001320   0.000129  -0.001909
    26  H   -0.000073  -0.000007   0.000074   0.000040   0.000004   0.000021
    27  F   -0.000208  -0.000018   0.000318  -0.000026   0.000010  -0.000046
               7          8          9         10         11         12
     1  C    0.436747  -0.001329   0.003706  -0.281478   0.003696   0.245582
     2  H   -0.013254   0.004070  -0.005416   0.032209  -0.000510   0.001594
     3  H   -0.045572  -0.002949   0.002598   0.021724   0.002069   0.012282
     4  C    0.011050   0.392632   0.430176  -0.053392  -0.027542  -0.153676
     5  H    0.001226  -0.029473  -0.064743  -0.023276   0.007574   0.011803
     6  N   -0.037579  -0.095667  -0.053362   0.279607  -0.070950  -0.316056
     7  H    0.508364  -0.000886  -0.000249  -0.018458  -0.004393   0.001312
     8  H   -0.000886   0.539142  -0.021735   0.087282  -0.010991  -0.005428
     9  H   -0.000249  -0.021735   0.554141  -0.015524  -0.001739  -0.002933
    10  C   -0.018458   0.087282  -0.015524   8.110032   0.249004  -1.515976
    11  H   -0.004393  -0.010991  -0.001739   0.249004   0.499013   0.143055
    12  C    0.001312  -0.005428  -0.002933  -1.515976   0.143055  12.735632
    13  C   -0.028503  -0.001305  -0.006322  -0.731546   0.023060   1.992415
    14  H   -0.008025  -0.001937  -0.001911  -0.188014   0.019473   0.598678
    15  O    0.000406   0.000840  -0.000035  -0.079293  -0.003502  -0.407626
    16  C   -0.001654  -0.004166  -0.000021   0.673684   0.047358  -4.608884
    17  C   -0.000914  -0.000896  -0.000335  -0.096906   0.030155  -0.379085
    18  C    0.006804   0.002330  -0.001354   0.078271  -0.068746  -1.578051
    19  O   -0.000046   0.000051   0.000000  -0.010450  -0.000881  -0.027380
    20  C    0.000361  -0.000293  -0.000069  -0.121618   0.011618  -0.624338
    21  C   -0.000577   0.002073  -0.000321   0.215028  -0.037646   0.345048
    22  H    0.001576   0.001146  -0.000022  -0.048699  -0.006773  -0.012704
    23  H    0.000164   0.000078   0.000013   0.007261  -0.002286  -0.002754
    24  H   -0.000002   0.000013  -0.000002  -0.000980  -0.000141  -0.001656
    25  C    0.000080  -0.000462  -0.000009   0.097147   0.005549  -0.212089
    26  H    0.000002  -0.000008   0.000000   0.002229   0.000073  -0.005196
    27  F    0.000016  -0.000006   0.000000   0.002430   0.000076  -0.005830
              13         14         15         16         17         18
     1  C   -0.044304   0.012152  -0.001985  -0.113715   0.005351   0.037583
     2  H   -0.005965  -0.001318   0.000026  -0.003887   0.001072  -0.000039
     3  H    0.018096  -0.003695  -0.000701   0.008232  -0.002199  -0.015415
     4  C   -0.045129  -0.011129  -0.003066   0.005184  -0.002134   0.019012
     5  H    0.007412   0.002662  -0.000037   0.004630   0.000581  -0.000809
     6  N   -0.030394  -0.040263  -0.005190  -0.098214  -0.022528   0.061050
     7  H   -0.028503  -0.008025   0.000406  -0.001654  -0.000914   0.006804
     8  H   -0.001305  -0.001937   0.000840  -0.004166  -0.000896   0.002330
     9  H   -0.006322  -0.001911  -0.000035  -0.000021  -0.000335  -0.001354
    10  C   -0.731546  -0.188014  -0.079293   0.673684  -0.096906   0.078271
    11  H    0.023060   0.019473  -0.003502   0.047358   0.030155  -0.068746
    12  C    1.992415   0.598678  -0.407626  -4.608884  -0.379085  -1.578051
    13  C   13.581676   0.029687   0.778035  -2.089426  -0.789113  -3.548153
    14  H    0.029687   0.488405   0.014335  -0.016647   0.023414  -0.117200
    15  O    0.778035   0.014335   8.090209  -0.044372   0.038928  -0.059538
    16  C   -2.089426  -0.016647  -0.044372  16.022892   0.242536  -2.575791
    17  C   -0.789113   0.023414   0.038928   0.242536  14.888073  -5.437495
    18  C   -3.548153  -0.117200  -0.059538  -2.575791  -5.437495  19.974205
    19  O   -0.105057   0.001863  -0.023535   0.111705   0.341673   0.039547
    20  C   -4.033298   0.008257  -0.044901  -2.031352  -2.297070   4.362457
    21  C    1.524205  -0.047603  -0.009820  -1.876195   0.501644  -2.452609
    22  H   -0.100394  -0.003589   0.000953  -0.255422  -0.009256   0.965210
    23  H    0.001149  -0.002194   0.092037  -0.158629   0.050732   0.020790
    24  H   -0.031102  -0.000084   0.000280  -0.102955  -0.178219   0.110053
    25  C   -0.461187  -0.009335  -0.009061   1.560188  -0.671787  -2.919767
    26  H    0.010381  -0.000190  -0.000008   0.112155   0.069982  -0.190001
    27  F   -0.006266  -0.000567  -0.000011   0.044130   0.014078  -0.062307
              19         20         21         22         23         24
     1  C   -0.000051   0.002971   0.007589   0.008351  -0.000611   0.000027
     2  H   -0.000004   0.000280  -0.000118   0.000998  -0.000060   0.000003
     3  H    0.000009  -0.002854   0.009311  -0.010401  -0.000035  -0.000033
     4  C   -0.000163  -0.001189   0.007561   0.000790   0.000144  -0.000014
     5  H    0.000002   0.000087  -0.000622  -0.000649  -0.000010  -0.000001
     6  N   -0.000209  -0.007813   0.043759   0.013959   0.000811   0.000015
     7  H   -0.000046   0.000361  -0.000577   0.001576   0.000164  -0.000002
     8  H    0.000051  -0.000293   0.002073   0.001146   0.000078   0.000013
     9  H    0.000000  -0.000069  -0.000321  -0.000022   0.000013  -0.000002
    10  C   -0.010450  -0.121618   0.215028  -0.048699   0.007261  -0.000980
    11  H   -0.000881   0.011618  -0.037646  -0.006773  -0.002286  -0.000141
    12  C   -0.027380  -0.624338   0.345048  -0.012704  -0.002754  -0.001656
    13  C   -0.105057  -4.033298   1.524205  -0.100394   0.001149  -0.031102
    14  H    0.001863   0.008257  -0.047603  -0.003589  -0.002194  -0.000084
    15  O   -0.023535  -0.044901  -0.009820   0.000953   0.092037   0.000280
    16  C    0.111705  -2.031352  -1.876195  -0.255422  -0.158629  -0.102955
    17  C    0.341673  -2.297070   0.501644  -0.009256   0.050732  -0.178219
    18  C    0.039547   4.362457  -2.452609   0.965210   0.020790   0.110053
    19  O    8.085727  -0.351792   0.004037  -0.001013   0.248930  -0.023771
    20  C   -0.351792  12.152889  -1.550109   0.157737   0.052761   0.594834
    21  C    0.004037  -1.550109  10.849283  -0.163677   0.014812   0.024494
    22  H   -0.001013   0.157737  -0.163677   0.485187   0.001578   0.004678
    23  H    0.248930   0.052761   0.014812   0.001578   0.349652   0.001748
    24  H   -0.023771   0.594834   0.024494   0.004678   0.001748   0.434319
    25  C    0.018174   0.217284  -1.141903  -0.257638  -0.010270  -0.087816
    26  H    0.001531  -0.111766  -0.192526  -0.008107  -0.000256  -0.012463
    27  F    0.000139  -0.015291   0.336593  -0.039338   0.000186   0.000788
              25         26         27
     1  C   -0.002503  -0.000073  -0.000208
     2  H   -0.000249  -0.000007  -0.000018
     3  H    0.004147   0.000074   0.000318
     4  C    0.001320   0.000040  -0.000026
     5  H    0.000129   0.000004   0.000010
     6  N   -0.001909   0.000021  -0.000046
     7  H    0.000080   0.000002   0.000016
     8  H   -0.000462  -0.000008  -0.000006
     9  H   -0.000009   0.000000   0.000000
    10  C    0.097147   0.002229   0.002430
    11  H    0.005549   0.000073   0.000076
    12  C   -0.212089  -0.005196  -0.005830
    13  C   -0.461187   0.010381  -0.006266
    14  H   -0.009335  -0.000190  -0.000567
    15  O   -0.009061  -0.000008  -0.000011
    16  C    1.560188   0.112155   0.044130
    17  C   -0.671787   0.069982   0.014078
    18  C   -2.919767  -0.190001  -0.062307
    19  O    0.018174   0.001531   0.000139
    20  C    0.217284  -0.111766  -0.015291
    21  C   -1.141903  -0.192526   0.336593
    22  H   -0.257638  -0.008107  -0.039338
    23  H   -0.010270  -0.000256   0.000186
    24  H   -0.087816  -0.012463   0.000788
    25  C    9.374418   0.626550  -0.219283
    26  H    0.626550   0.429888  -0.019296
    27  F   -0.219283  -0.019296   9.151520
 Mulliken charges:
               1
     1  C   -0.427788
     2  H    0.202198
     3  H    0.182974
     4  C   -0.331010
     5  H    0.179428
     6  N    0.176792
     7  H    0.192007
     8  H    0.147874
     9  H    0.185463
    10  C   -0.670298
    11  H    0.194328
    12  C   -0.227738
    13  C    0.091347
    14  H    0.254775
    15  O   -0.323368
    16  C    1.148635
    17  C   -0.320279
    18  C   -0.650035
    19  O   -0.309036
    20  C   -0.367782
    21  C   -0.411712
    22  H    0.275519
    23  H    0.334259
    24  H    0.267989
    25  C    0.100284
    26  H    0.286966
    27  F   -0.181792
 Sum of Mulliken charges =   0.00000
 Mulliken charges with hydrogens summed into heavy atoms:
               1
     1  C    0.149391
     4  C    0.181756
     6  N    0.176792
    10  C   -0.475971
    12  C    0.027037
    13  C    0.091347
    15  O   -0.323368
    16  C    1.148635
    17  C   -0.320279
    18  C   -0.374516
    19  O    0.025222
    20  C   -0.099792
    21  C   -0.411712
    25  C    0.387251
    27  F   -0.181792
 Electronic spatial extent (au):  <R**2>=           4179.6672
 Charge=              0.0000 electrons
 Dipole moment (field-independent basis, Debye):
    X=             -3.8418    Y=              4.1886    Z=              0.9637  Tot=              5.7647
 Quadrupole moment (field-independent basis, Debye-Ang):
   XX=            -59.6561   YY=           -106.4919   ZZ=            -84.3842
   XY=             -3.9755   XZ=             -0.3847   YZ=             -0.1374
 Traceless Quadrupole moment (field-independent basis, Debye-Ang):
   XX=             23.8546   YY=            -22.9811   ZZ=             -0.8735
   XY=             -3.9755   XZ=             -0.3847   YZ=             -0.1374
 Octapole moment (field-independent basis, Debye-Ang**2):
  XXX=            -45.4807  YYY=             24.3100  ZZZ=              2.0305  XYY=            -18.0126
  XXY=             39.5985  XXZ=             14.0294  XZZ=            -17.7110  YZZ=              3.6139
  YYZ=              2.7179  XYZ=              4.4594
 Hexadecapole moment (field-independent basis, Debye-Ang**3):
 XXXX=          -3208.2514 YYYY=          -1293.6911 ZZZZ=           -299.2446 XXXY=              8.6132
 XXXZ=             26.2639 YYYX=            -15.1665 YYYZ=             -3.0366 ZZZX=            -15.6126
 ZZZY=             -2.2349 XXYY=           -900.5348 XXZZ=           -678.9112 YYZZ=           -243.9441
 XXYZ=             10.3919 YYXZ=             -2.9531 ZZXY=              5.4042
 N-N= 9.479405470497D+02 E-N=-3.606624566931D+03  KE= 7.284648771261D+02
 1\1\GINC-NXV21\FOpt\RwB97XD TD-FC\6-311++G(d,p)\C11H12F1N1O2\CA12053\2
 8-Jul-2017\0\\# wb97xd 6-311++g** opt td=(nstates=1,root=1) SCRF=(PCM,
 solvent=dichloromethane)\\title\\0,1\C,0.3022937188,0.0702871104,8.583
 9885489\H,0.9964677278,0.9046843312,8.5292272616\H,-0.5088591111,0.324
 6112265,9.2664614096\C,0.2745524802,0.6565074121,6.1631516709\H,0.0310
 674053,1.6980704311,6.3771946376\N,-0.2267404611,-0.1857394215,7.24401
 39484\H,0.8300201119,-0.8110860129,8.949903784\H,-0.1810978117,0.36096
 85244,5.221087008\H,1.3577415842,0.5468180669,6.0970427731\C,-1.115369
 8117,-1.1244654843,7.0177927252\H,-1.4408396181,-1.2353498442,5.989437
 019\C,-1.6842867521,-1.9553809376,7.989944446\C,-2.6428187159,-2.98157
 25632,7.5933998452\H,-1.3060435627,-1.9282574973,9.0109087278\O,-2.010
 3672311,-4.0781493142,7.2824120017\C,-4.0569053943,-2.8022104447,7.585
 4016728\C,-4.9179158098,-3.8692235694,7.1956800725\C,-4.6541615997,-1.
 5759208089,7.9467547756\O,-4.3956899922,-5.0743036579,6.8405752636\C,-
 6.2872294885,-3.6963186281,7.172150127\C,-6.0285239497,-1.4482100293,7
 .9093893335\H,-4.0481355302,-0.7320236974,8.2560134157\H,-3.4187979564
 ,-4.9947905014,6.9186850095\H,-6.9130242515,-4.52834625,6.869993002\C,
 -6.8687250522,-2.4727878043,7.5310873675\H,-7.9415022779,-2.3320151507
 ,7.5155309094\F,-6.5714504304,-0.2498629722,8.2649654526\\Version=ES64
 L-G09RevD.01\State=1-A\HF=-731.3634729\RMSD=6.503e-09\RMSF=6.572e-06\D
 ipole=4.7164821,4.5966593,-0.0452384\PG=C01 [X(C11H12F1N1O2)]\\@


 TO DETECT ERRORS, THE PROGRAMMER MUST HAVE A CONNIVING MIND,
 ONE THAT DELIGHTS IN UNCOVERING FLAWS WHERE BEAUTY AND
 PERFECTION WERE ONCE THOUGHT TO LIE.

             -- THE PSYCHOLOGY OF COMPUTER PROGRAMMING
                GERALD M. WEINBERG
 Job cpu time:       1 days 21 hours 46 minutes 21.0 seconds.
 File lengths (MBytes):  RWF=    267 Int=      0 D2E=      0 Chk=     26 Scr=      1
 Normal termination of Gaussian 09 at Fri Jul 28 03:01:20 2017.
