 Entering Gaussian System, Link 0=g09
 Input=4_opt_DCM.com
 Output=4_opt_DCM.out
 Initial command:
 /share/apps/gaussian/g09_D01/g09/l1.exe "/tmp/3820758.1.serial.q/Gau-19228.inp" -scrdir="/tmp/3820758.1.serial.q/"
 Entering Link 1 = /share/apps/gaussian/g09_D01/g09/l1.exe PID=     19229.
  
 Copyright (c) 1988,1990,1992,1993,1995,1998,2003,2009,2013,
            Gaussian, Inc.  All Rights Reserved.
  
 This is part of the Gaussian(R) 09 program.  It is based on
 the Gaussian(R) 03 system (copyright 2003, Gaussian, Inc.),
 the Gaussian(R) 98 system (copyright 1998, Gaussian, Inc.),
 the Gaussian(R) 94 system (copyright 1995, Gaussian, Inc.),
 the Gaussian 92(TM) system (copyright 1992, Gaussian, Inc.),
 the Gaussian 90(TM) system (copyright 1990, Gaussian, Inc.),
 the Gaussian 88(TM) system (copyright 1988, Gaussian, Inc.),
 the Gaussian 86(TM) system (copyright 1986, Carnegie Mellon
 University), and the Gaussian 82(TM) system (copyright 1983,
 Carnegie Mellon University). Gaussian is a federally registered
 trademark of Gaussian, Inc.
  
 This software contains proprietary and confidential information,
 including trade secrets, belonging to Gaussian, Inc.
  
 This software is provided under written license and may be
 used, copied, transmitted, or stored only in accord with that
 written license.
  
 The following legend is applicable only to US Government
 contracts under FAR:
  
                    RESTRICTED RIGHTS LEGEND
  
 Use, reproduction and disclosure by the US Government is
 subject to restrictions as set forth in subparagraphs (a)
 and (c) of the Commercial Computer Software - Restricted
 Rights clause in FAR 52.227-19.
  
 Gaussian, Inc.
 340 Quinnipiac St., Bldg. 40, Wallingford CT 06492
  
  
 ---------------------------------------------------------------
 Warning -- This program may not be used in any manner that
 competes with the business of Gaussian, Inc. or will provide
 assistance to any competitor of Gaussian, Inc.  The licensee
 of this program is prohibited from giving any competitor of
 Gaussian, Inc. access to this program.  By using this program,
 the user acknowledges that Gaussian, Inc. is engaged in the
 business of creating and licensing software in the field of
 computational chemistry and represents and warrants to the
 licensee that it is not a competitor of Gaussian, Inc. and that
 it will not use this program in any manner prohibited above.
 ---------------------------------------------------------------
  

 Cite this work as:
 Gaussian 09, Revision D.01,
 M. J. Frisch, G. W. Trucks, H. B. Schlegel, G. E. Scuseria, 
 M. A. Robb, J. R. Cheeseman, G. Scalmani, V. Barone, B. Mennucci, 
 G. A. Petersson, H. Nakatsuji, M. Caricato, X. Li, H. P. Hratchian, 
 A. F. Izmaylov, J. Bloino, G. Zheng, J. L. Sonnenberg, M. Hada, 
 M. Ehara, K. Toyota, R. Fukuda, J. Hasegawa, M. Ishida, T. Nakajima, 
 Y. Honda, O. Kitao, H. Nakai, T. Vreven, J. A. Montgomery, Jr., 
 J. E. Peralta, F. Ogliaro, M. Bearpark, J. J. Heyd, E. Brothers, 
 K. N. Kudin, V. N. Staroverov, T. Keith, R. Kobayashi, J. Normand, 
 K. Raghavachari, A. Rendell, J. C. Burant, S. S. Iyengar, J. Tomasi, 
 M. Cossi, N. Rega, J. M. Millam, M. Klene, J. E. Knox, J. B. Cross, 
 V. Bakken, C. Adamo, J. Jaramillo, R. Gomperts, R. E. Stratmann, 
 O. Yazyev, A. J. Austin, R. Cammi, C. Pomelli, J. W. Ochterski, 
 R. L. Martin, K. Morokuma, V. G. Zakrzewski, G. A. Voth, 
 P. Salvador, J. J. Dannenberg, S. Dapprich, A. D. Daniels, 
 O. Farkas, J. B. Foresman, J. V. Ortiz, J. Cioslowski, 
 and D. J. Fox, Gaussian, Inc., Wallingford CT, 2013.
 
 ******************************************
 Gaussian 09:  ES64L-G09RevD.01 24-Apr-2013
                19-Oct-2016 
 ******************************************
 %chk=4_opt_DCM.chk
 %mem=2GB
 %nproc=4
 Will use up to    4 processors via shared memory.
 ----------------------------------------------------------------------
 # wb97xd 6-311++g** opt=restart geom=allcheck SCRF=(PCM,solvent=dichlo
 romethane)
 ----------------------------------------------------------------------
 1/14=-1,18=20,19=15,26=3,35=1/3(2);
 2/9=110/2;
 99//99;
 2/9=110/2;
 3/5=4,6=6,7=1111,11=2,14=-2,16=1,25=1,30=1,70=2205,71=1,72=9,74=-58/1,2,3;
 4/5=5,16=3,69=1/1;
 5/5=2,38=5,53=9/2;
 7//1,2,3,16;
 1/14=-1,18=20,19=15,26=3/3(-5);
 2/9=110/2;
 6/7=2,8=2,9=2,10=2,19=2,28=1/1;
 99/9=1/99;

 GradGradGradGradGradGradGradGradGradGradGradGradGradGradGradGradGradGrad
 Berny optimization.
 Restoring state from the checkpoint file "4_opt_DCM.chk".
 ONIOM results not found on unit 2.
 Title:  Geom Opt s0
 Route:  # wb97xd 6-311++g** opt
 Using GEDIIS/GDIIS optimizer.
 FormGI is forming the generalized inverse of G from B-inverse, IUseBI=4.
 Internal  Forces:  Max     0.000045711 RMS     0.000013547
 Search for a local minimum.
 Step number   8 out of a maximum of  134
 All quantities printed in internal units (Hartrees-Bohrs-Radians)
 Mixed Optimization -- En-DIIS/RFO-DIIS
 Swapping is turned off.
 Update second derivatives using D2CorX and points    1    2    3    4    5
                                                      6    7    8
 DE= -2.10D-07 DEPred=-2.04D-07 R= 1.03D+00
 Trust test= 1.03D+00 RLast= 2.61D-03 DXMaxT set to 1.50D-01
 ITU=  0  0  1  1 -1  1  1  0
     Eigenvalues ---    0.00667   0.01037   0.01060   0.01361   0.01425
     Eigenvalues ---    0.01468   0.01690   0.02015   0.02067   0.02162
     Eigenvalues ---    0.02169   0.02207   0.02235   0.02239   0.02280
     Eigenvalues ---    0.02296   0.02445   0.02526   0.02609   0.07062
     Eigenvalues ---    0.07406   0.07456   0.07615   0.07629   0.13427
     Eigenvalues ---    0.15533   0.15991   0.16000   0.16000   0.16000
     Eigenvalues ---    0.16000   0.16001   0.16004   0.16016   0.16180
     Eigenvalues ---    0.18246   0.20043   0.21824   0.22089   0.22948
     Eigenvalues ---    0.23747   0.24464   0.24846   0.24973   0.25010
     Eigenvalues ---    0.26861   0.30235   0.34062   0.34116   0.34341
     Eigenvalues ---    0.34384   0.34830   0.34840   0.35211   0.35237
     Eigenvalues ---    0.35572   0.36002   0.36557   0.37656   0.38181
     Eigenvalues ---    0.38453   0.38664   0.39617   0.42844   0.43114
     Eigenvalues ---    0.46148   0.46932   0.48309   0.50925   0.52366
     Eigenvalues ---    0.53277   0.56814   0.63247   0.84285   1.02159
 En-DIIS/RFO-DIIS IScMMF=        0 using points:     8    7    6    5    4
 RFO step:  Lambda=-5.58741816D-08.
 DidBck=F Rises=F RFO-DIIS coefs:    0.70437    0.06737    0.13464    0.05951    0.03411
 Iteration  1 RMS(Cart)=  0.00116045 RMS(Int)=  0.00000032
 Iteration  2 RMS(Cart)=  0.00000076 RMS(Int)=  0.00000004
 Variable       Old X    -DE/DX   Delta X   Delta X   Delta X     New X
                                 (Linear)    (Quad)   (Total)
    R1        2.05925   0.00001   0.00000   0.00002   0.00002   2.05927
    R2        2.07195   0.00000   0.00000   0.00000  -0.00001   2.07194
    R3        2.73727   0.00001   0.00000   0.00000   0.00000   2.73727
    R4        2.06716   0.00000   0.00000  -0.00001  -0.00001   2.06715
    R5        2.07062   0.00000   0.00000   0.00000   0.00000   2.07062
    R6        2.74072  -0.00001   0.00001  -0.00004  -0.00003   2.74069
    R7        2.05924   0.00000   0.00000   0.00000   0.00000   2.05924
    R8        2.06657   0.00000  -0.00001   0.00000   0.00000   2.06657
    R9        2.53451   0.00002   0.00000   0.00004   0.00004   2.53455
   R10        2.05238   0.00000  -0.00001  -0.00001  -0.00001   2.05237
   R11        2.57411  -0.00001   0.00001  -0.00002  -0.00001   2.57410
   R12        2.73637   0.00003  -0.00001   0.00008   0.00007   2.73644
   R13        2.03887   0.00000   0.00000   0.00000   0.00001   2.03888
   R14        2.34970   0.00002   0.00002  -0.00002   0.00000   2.34970
   R15        2.81405   0.00000   0.00003  -0.00008  -0.00005   2.81400
   R16        2.67097   0.00004  -0.00002   0.00007   0.00005   2.67102
   R17        2.65410   0.00001   0.00004   0.00003   0.00007   2.65416
   R18        2.52291   0.00000   0.00000   0.00005   0.00005   2.52296
   R19        2.64795   0.00001  -0.00003   0.00007   0.00004   2.64799
   R20        2.59159  -0.00002   0.00001  -0.00011  -0.00010   2.59150
   R21        2.04316   0.00001  -0.00003   0.00004   0.00001   2.04317
   R22        1.86358  -0.00002   0.00002  -0.00007  -0.00004   1.86353
   R23        2.04640   0.00000   0.00003  -0.00003   0.00000   2.04640
   R24        2.60605   0.00001   0.00005  -0.00001   0.00004   2.60609
   R25        2.62310  -0.00002   0.00000  -0.00006  -0.00006   2.62303
   R26        2.55482  -0.00003   0.00009  -0.00022  -0.00013   2.55469
   R27        2.04713  -0.00001  -0.00002   0.00006   0.00004   2.04717
    A1        1.89738   0.00000   0.00000  -0.00003  -0.00003   1.89735
    A2        1.90903   0.00000   0.00000  -0.00004  -0.00004   1.90900
    A3        1.89263   0.00000   0.00000  -0.00002  -0.00002   1.89261
    A4        1.94333   0.00000  -0.00001   0.00003   0.00002   1.94335
    A5        1.89451   0.00000   0.00001   0.00003   0.00004   1.89455
    A6        1.92602   0.00000   0.00001   0.00002   0.00002   1.92605
    A7        1.94246   0.00000   0.00001  -0.00004  -0.00003   1.94243
    A8        1.89376   0.00001   0.00001   0.00004   0.00005   1.89381
    A9        1.89589   0.00000   0.00000  -0.00001   0.00000   1.89589
   A10        1.91129  -0.00001   0.00000  -0.00004  -0.00004   1.91125
   A11        1.92736   0.00000  -0.00002   0.00003   0.00001   1.92737
   A12        1.89206   0.00000  -0.00001   0.00002   0.00001   1.89207
   A13        2.05936  -0.00002   0.00001  -0.00013  -0.00011   2.05924
   A14        2.09879   0.00004  -0.00002   0.00021   0.00018   2.09897
   A15        2.11592  -0.00002  -0.00002  -0.00005  -0.00007   2.11585
   A16        2.01750  -0.00002   0.00001  -0.00010  -0.00009   2.01741
   A17        2.21615   0.00005  -0.00002   0.00025   0.00023   2.21638
   A18        2.04951  -0.00003   0.00001  -0.00015  -0.00014   2.04937
   A19        2.06208  -0.00003   0.00003  -0.00019  -0.00016   2.06193
   A20        2.11390   0.00001  -0.00003   0.00008   0.00005   2.11394
   A21        2.10715   0.00002   0.00000   0.00011   0.00011   2.10726
   A22        2.11136   0.00000   0.00006  -0.00005   0.00001   2.11137
   A23        2.09828   0.00000  -0.00007   0.00019   0.00012   2.09840
   A24        2.07354   0.00000   0.00001  -0.00014  -0.00013   2.07341
   A25        2.08232   0.00004   0.00003  -0.00010  -0.00007   2.08225
   A26        2.13515  -0.00004  -0.00012   0.00018   0.00006   2.13521
   A27        2.06571   0.00000   0.00009  -0.00008   0.00001   2.06572
   A28        2.14591   0.00003   0.00003   0.00003   0.00006   2.14597
   A29        2.09078  -0.00001  -0.00002  -0.00003  -0.00005   2.09072
   A30        2.04650  -0.00002  -0.00001   0.00000  -0.00001   2.04649
   A31        2.09946   0.00000  -0.00016   0.00017   0.00001   2.09948
   A32        2.12227   0.00000   0.00022  -0.00027  -0.00005   2.12222
   A33        2.06145   0.00001  -0.00006   0.00010   0.00004   2.06149
   A34        1.85477   0.00003   0.00011   0.00012   0.00023   1.85501
   A35        2.05949   0.00000   0.00003  -0.00009  -0.00005   2.05943
   A36        2.11005  -0.00001   0.00003  -0.00005  -0.00002   2.11003
   A37        2.11365   0.00001  -0.00006   0.00014   0.00008   2.11373
   A38        2.12625   0.00001   0.00015  -0.00016  -0.00001   2.12624
   A39        2.08089  -0.00001  -0.00007   0.00007   0.00000   2.08090
   A40        2.07604   0.00000  -0.00008   0.00008   0.00000   2.07605
   A41        2.07412   0.00001  -0.00009   0.00014   0.00005   2.07418
   A42        2.11851   0.00000   0.00017  -0.00017  -0.00001   2.11850
   A43        2.09055  -0.00002  -0.00008   0.00003  -0.00005   2.09051
    D1       -0.24021   0.00000   0.00017  -0.00016   0.00001  -0.24019
    D2        3.04429   0.00001   0.00038  -0.00037   0.00000   3.04429
    D3        1.85717   0.00000   0.00017  -0.00020  -0.00003   1.85713
    D4       -1.14153   0.00000   0.00037  -0.00041  -0.00004  -1.14157
    D5       -2.32094   0.00000   0.00017  -0.00013   0.00005  -2.32089
    D6        0.96355   0.00001   0.00038  -0.00034   0.00004   0.96359
    D7       -1.11474   0.00000  -0.00019   0.00038   0.00019  -1.11454
    D8        1.88248   0.00000  -0.00040   0.00062   0.00022   1.88271
    D9        3.07466   0.00000  -0.00021   0.00039   0.00018   3.07484
   D10       -0.21131   0.00000  -0.00042   0.00063   0.00021  -0.21110
   D11        0.99241   0.00000  -0.00019   0.00037   0.00018   0.99259
   D12       -2.29356   0.00000  -0.00040   0.00061   0.00021  -2.29335
   D13        3.12102   0.00000  -0.00011   0.00025   0.00014   3.12116
   D14       -0.02813   0.00000  -0.00015   0.00038   0.00022  -0.02791
   D15        0.12703   0.00001   0.00010   0.00004   0.00013   0.12716
   D16       -3.02212   0.00001   0.00006   0.00016   0.00022  -3.02190
   D17       -3.11994   0.00000   0.00003  -0.00001   0.00001  -3.11993
   D18        0.03275   0.00000  -0.00001   0.00009   0.00008   0.03282
   D19        0.01398   0.00000  -0.00001   0.00011   0.00010   0.01407
   D20       -3.11652   0.00000  -0.00005   0.00021   0.00016  -3.11636
   D21        0.01290   0.00001  -0.00005   0.00118   0.00114   0.01404
   D22       -3.12545  -0.00001  -0.00014  -0.00041  -0.00055  -3.12600
   D23       -3.13974   0.00001  -0.00001   0.00108   0.00108  -3.13867
   D24        0.00509  -0.00001  -0.00010  -0.00051  -0.00061   0.00448
   D25        3.13299   0.00001  -0.00015   0.00162   0.00147   3.13446
   D26       -0.00921   0.00002  -0.00019   0.00186   0.00167  -0.00754
   D27       -0.00543   0.00000  -0.00024   0.00006  -0.00018  -0.00561
   D28        3.13556   0.00000  -0.00028   0.00030   0.00002   3.13558
   D29        0.00046   0.00001  -0.00011   0.00087   0.00076   0.00122
   D30       -3.14124   0.00001  -0.00006   0.00051   0.00045  -3.14079
   D31       -3.14055   0.00001  -0.00007   0.00063   0.00056  -3.13999
   D32        0.00094   0.00001  -0.00002   0.00027   0.00025   0.00119
   D33       -3.14156  -0.00001   0.00005  -0.00048  -0.00043   3.14119
   D34       -0.00033   0.00000   0.00002  -0.00026  -0.00024  -0.00057
   D35       -0.00057   0.00000   0.00001  -0.00024  -0.00023  -0.00080
   D36        3.14066   0.00000  -0.00002  -0.00001  -0.00004   3.14063
   D37        0.00280   0.00002  -0.00005   0.00059   0.00054   0.00334
   D38       -3.13869   0.00002  -0.00010   0.00094   0.00084  -3.13785
   D39        3.14141   0.00000  -0.00001   0.00002   0.00001   3.14142
   D40       -0.00068   0.00000   0.00001  -0.00014  -0.00013  -0.00081
   D41       -0.00029  -0.00001   0.00004  -0.00032  -0.00028  -0.00057
   D42        3.14081  -0.00001   0.00006  -0.00048  -0.00042   3.14039
   D43       -0.00007   0.00000   0.00000   0.00007   0.00007   0.00000
   D44        3.14142   0.00000  -0.00002   0.00016   0.00014   3.14156
   D45       -3.14132   0.00000   0.00003  -0.00014  -0.00011  -3.14143
   D46        0.00017   0.00000   0.00002  -0.00006  -0.00004   0.00013
   D47        0.00004   0.00000   0.00000  -0.00003  -0.00003   0.00000
   D48        3.14159   0.00000  -0.00001   0.00004   0.00004  -3.14156
   D49        3.14112   0.00000   0.00002  -0.00020  -0.00018   3.14094
   D50       -0.00052   0.00000   0.00001  -0.00012  -0.00010  -0.00062
   D51        0.00034   0.00000   0.00000   0.00007   0.00006   0.00041
   D52       -3.14121   0.00000   0.00000  -0.00001  -0.00001  -3.14122
   D53       -3.14114   0.00000   0.00001  -0.00002  -0.00001  -3.14115
   D54        0.00049   0.00000   0.00002  -0.00010  -0.00008   0.00041
         Item               Value     Threshold  Converged?
 Maximum Force            0.000046     0.000450     YES
 RMS     Force            0.000014     0.000300     YES
 Maximum Displacement     0.003954     0.001800     NO 
 RMS     Displacement     0.001160     0.001200     YES
 Predicted change in Energy=-1.236405D-07
 GradGradGradGradGradGradGradGradGradGradGradGradGradGradGradGradGradGrad

                          Input orientation:                          
 ---------------------------------------------------------------------
 Center     Atomic      Atomic             Coordinates (Angstroms)
 Number     Number       Type             X           Y           Z
 ---------------------------------------------------------------------
      1          6           0       -3.750233    2.247699   -0.048604
      2          1           0       -4.761501    2.634989   -0.170368
      3          1           0       -3.335468    2.635934    0.889155
      4          6           0       -5.074918    0.151341    0.105185
      5          1           0       -5.516909    0.372544    1.083106
      6          7           0       -3.786824    0.799658   -0.049384
      7          1           0       -3.137562    2.613267   -0.877812
      8          1           0       -4.951988   -0.927831    0.017282
      9          1           0       -5.766048    0.484775   -0.673971
     10          6           0       -2.646085    0.094681   -0.024709
     11          1           0       -2.762189   -0.985021   -0.007190
     12          6           0       -1.376843    0.589135   -0.027631
     13          6           0       -0.276972   -0.352761   -0.025283
     14          1           0       -1.192510    1.652180   -0.021281
     15          8           0       -0.484348   -1.578711   -0.035693
     16          6           0        1.129266    0.136769   -0.008251
     17          6           0        2.187765   -0.799867    0.002552
     18          6           0        1.448666    1.504482   -0.002918
     19          8           0        1.989368   -2.120126   -0.003150
     20          6           0        3.514887   -0.350444    0.019585
     21          6           0        2.758985    1.908746    0.013365
     22          1           0        0.680736    2.265531   -0.011542
     23          1           0        1.012326   -2.252858   -0.018737
     24          1           0        4.303006   -1.093071    0.027698
     25          6           0        3.806012    0.997550    0.025048
     26          9           0        3.041903    3.230684    0.018172
     27          1           0        4.829033    1.353680    0.038160
 ---------------------------------------------------------------------
                    Distance matrix (angstroms):
                    1          2          3          4          5
     1  C    0.000000
     2  H    1.089717   0.000000
     3  H    1.096426   1.776558   0.000000
     4  C    2.484583   2.518465   3.132650   0.000000
     5  H    2.813914   2.694531   3.149481   1.095727   0.000000
     6  N    1.448503   2.081603   2.111039   1.450308   2.111434
     7  H    1.093888   1.771476   1.778160   3.283399   3.811473
     8  H    3.395960   3.572840   4.009204   1.089702   1.773722
     9  H    2.749998   2.426139   3.602577   1.093582   1.778197
    10  C    2.419752   3.308982   2.787178   2.432963   3.089675
    11  H    3.380595   4.138641   3.774043   2.579276   3.258866
    12  C    2.895557   3.957499   2.977598   3.726266   4.291945
    13  C    4.338949   5.390612   4.372973   4.826119   5.404769
    14  H    2.626279   3.704840   2.527635   4.164325   4.643013
    15  O    5.030664   6.005617   5.171795   4.907775   5.512329
    16  C    5.316688   6.400666   5.194710   6.205238   6.739309
    17  C    6.674586   7.753737   6.564823   7.325428   7.867918
    18  C    5.251954   6.314449   4.996391   6.663320   7.140026
    19  O    7.212696   8.259135   7.195150   7.421282   7.983579
    20  C    7.716020   8.800425   7.523428   8.604874   9.122890
    21  C    6.518332   7.557704   6.199852   8.029130   8.484967
    22  H    4.431161   5.457075   4.132596   6.132779   6.572097
    23  H    6.552699   7.566446   6.605139   6.545996   7.123040
    24  H    8.719015   9.803211   8.543645   9.460445   9.984620
    25  C    7.659317   8.724773   7.377785   8.921513   9.403561
    26  F    6.863223   7.828378   6.463993   8.681745   9.086050
    27  H    8.626158   9.677995   8.308276   9.976891  10.444762
                    6          7          8          9         10
     6  N    0.000000
     7  H    2.096905   0.000000
     8  H    2.084771   4.078322   0.000000
     9  H    2.099187   3.388358   1.770870   0.000000
    10  C    1.341226   2.704183   2.522793   3.210589   0.000000
    11  H    2.058334   3.721097   2.190683   3.409995   1.086068
    12  C    2.419256   2.814257   3.883924   4.437765   1.362156
    13  C    3.694281   4.207980   4.710445   5.590368   2.410996
    14  H    2.730943   2.332501   4.559783   4.765091   2.130421
    15  O    4.069788   5.032035   4.515115   5.706288   2.733765
    16  C    4.960751   5.009490   6.173789   6.936111   3.775622
    17  C    6.185215   6.386206   7.140915   8.085241   4.916001
    18  C    5.282925   4.798784   6.847257   7.317254   4.330705
    19  O    6.472377   7.032456   7.043040   8.208653   5.137437
    20  C    7.392054   7.337845   8.486539   9.344215   6.177190
    21  C    6.639399   6.004982   8.216160   8.670427   5.701496
    22  H    4.702054   3.930743   6.475027   6.720932   3.972468
    23  H    5.687761   6.452809   6.109831   7.339640   4.346832
    24  H    8.308653   8.361754   9.256475  10.216055   7.050062
    25  C    7.595778   7.186022   8.967146   9.611237   6.515152
    26  F    7.248859   6.274534   9.010857   9.251977   6.495349
    27  H    8.634095   8.117401  10.043610  10.654476   7.580661
                   11         12         13         14         15
    11  H    0.000000
    12  C    2.097038   0.000000
    13  C    2.564446   1.448064   0.000000
    14  H    3.069026   1.078926   2.204089   0.000000
    15  O    2.354111   2.344391   1.243409   3.307620   0.000000
    16  C    4.049918   2.546683   1.489105   2.772595   2.355286
    17  C    4.953425   3.825790   2.505116   4.176045   2.783568
    18  C    4.891722   2.970181   2.535287   2.645366   3.639189
    19  O    4.885260   4.321119   2.874085   4.935074   2.532481
    20  C    6.309127   4.981371   3.792125   5.115833   4.183966
    21  C    6.233592   4.341443   3.785887   3.959966   4.762769
    22  H    4.734959   2.654090   2.787982   1.971128   4.016989
    23  H    3.981771   3.712834   2.296236   4.484487   1.641583
    24  H    7.066107   5.923982   4.639727   6.143248   4.812341
    25  C    6.860968   5.199189   4.300771   5.041419   5.004797
    26  F    7.173583   5.148319   4.884454   4.519234   5.963859
    27  H    7.943439   6.253140   5.383981   6.029230   6.069299
                   16         17         18         19         20
    16  C    0.000000
    17  C    1.413444   0.000000
    18  C    1.404523   2.419984   0.000000
    19  O    2.415238   1.335095   3.664716   0.000000
    20  C    2.435023   1.401257   2.776783   2.336556   0.000000
    21  C    2.407561   2.768210   1.371360   4.101754   2.382302
    22  H    2.175504   3.415845   1.081196   4.576742   3.857033
    23  H    2.392509   1.869036   3.782624   0.986140   3.143797
    24  H    3.403884   2.135614   3.859466   2.531544   1.082909
    25  C    2.811942   2.418664   2.411398   3.608447   1.379084
    26  F    3.637470   4.120089   2.349174   5.453388   3.612228
    27  H    3.895036   3.408127   3.383978   4.486951   2.152061
                   21         22         23         24         25
    21  C    0.000000
    22  H    2.108799   0.000000
    23  H    4.513401   4.530545   0.000000
    24  H    3.375664   4.939897   3.489389   0.000000
    25  C    1.388049   3.372901   4.286228   2.148885   0.000000
    26  F    1.351882   2.550982   5.847202   4.503924   2.360254
    27  H    2.143318   4.247624   5.251439   2.502680   1.083316
                   26         27
    26  F    0.000000
    27  H    2.591790   0.000000
 Stoichiometry    C11H12FNO2
 Framework group  C1[X(C11H12FNO2)]
 Deg. of freedom    75
 Full point group                 C1      NOp   1
 Largest Abelian subgroup         C1      NOp   1
 Largest concise Abelian subgroup C1      NOp   1
                         Standard orientation:                         
 ---------------------------------------------------------------------
 Center     Atomic      Atomic             Coordinates (Angstroms)
 Number     Number       Type             X           Y           Z
 ---------------------------------------------------------------------
      1          6           0        3.774224    1.787613    0.047098
      2          1           0        4.785544    2.174863    0.168557
      3          1           0        3.359114    2.176037   -0.890431
      4          6           0        5.098815   -0.308737   -0.107594
      5          1           0        5.540443   -0.087352   -1.085638
      6          7           0        3.810790    0.339572    0.047583
      7          1           0        3.161869    2.153031    0.876605
      8          1           0        4.975899   -1.387924   -0.019855
      9          1           0        5.790242    0.024534    0.671367
     10          6           0        2.670030   -0.365380    0.023199
     11          1           0        2.786108   -1.445081    0.005427
     12          6           0        1.400798    0.129095    0.026692
     13          6           0        0.300909   -0.812781    0.024573
     14          1           0        1.216480    1.192144    0.020617
     15          8           0        0.508268   -2.038737    0.034668
     16          6           0       -1.105327   -0.323224    0.008163
     17          6           0       -2.163846   -1.259839   -0.002425
     18          6           0       -1.424705    1.044496    0.003215
     19          8           0       -1.965469   -2.580103    0.002946
     20          6           0       -3.490966   -0.810391   -0.018874
     21          6           0       -2.735023    1.448785   -0.012500
     22          1           0       -0.656759    1.805529    0.011698
     23          1           0       -0.988424   -2.712855    0.018142
     24          1           0       -4.279101   -1.553003   -0.026836
     25          6           0       -3.782070    0.537609   -0.023967
     26          9           0       -3.017920    2.770729   -0.016944
     27          1           0       -4.805090    0.893760   -0.036626
 ---------------------------------------------------------------------
 Rotational constants (GHZ):      1.0614173      0.2927494      0.2301940
 Standard basis: 6-311++G(d,p) (5D, 7F)
 There are   429 symmetry adapted cartesian basis functions of A   symmetry.
 There are   414 symmetry adapted basis functions of A   symmetry.
   414 basis functions,   648 primitive gaussians,   429 cartesian basis functions
    55 alpha electrons       55 beta electrons
       nuclear repulsion energy       944.1937418491 Hartrees.
 NAtoms=   27 NActive=   27 NUniq=   27 SFac= 1.00D+00 NAtFMM=   60 NAOKFM=F Big=F
 Integral buffers will be    131072 words long.
 Raffenetti 2 integral format.
 Two-electron integral symmetry is turned on.
 Nuclear repulsion after empirical dispersion term =      944.1786001011 Hartrees.
 One-electron integrals computed using PRISM.
 NBasis=   414 RedAO= T EigKep=  1.72D-06  NBF=   414
 NBsUse=   411 1.00D-06 EigRej=  7.34D-07 NBFU=   411
 Initial guess from the checkpoint file:  "4_opt_DCM.chk"
 B after Tr=     0.000000    0.000000    0.000000
         Rot=    0.000000   -0.000010    1.000000    0.000011 Ang=-180.00 deg.
 Requested convergence on RMS density matrix=1.00D-08 within 128 cycles.
 Requested convergence on MAX density matrix=1.00D-06.
 Requested convergence on             energy=1.00D-06.
 No special actions if energy rises.
 SCF Done:  E(RwB97XD) =  -731.392711364     A.U. after    9 cycles
            NFock=  9  Conv=0.84D-08     -V/T= 2.0037
 Calling FoFJK, ICntrl=      2127 FMM=F ISym2X=0 I1Cent= 0 IOpClX= 0 NMat=1 NMatS=1 NMatT=0.
 ***** Axes restored to original set *****
 -------------------------------------------------------------------
 Center     Atomic                   Forces (Hartrees/Bohr)
 Number     Number              X              Y              Z
 -------------------------------------------------------------------
      1        6           0.000016208    0.000004022    0.000001707
      2        1           0.000008849    0.000006665   -0.000002935
      3        1           0.000004777    0.000003991    0.000004462
      4        6          -0.000006234   -0.000001371   -0.000009846
      5        1           0.000000986    0.000007593   -0.000005480
      6        7           0.000030623    0.000000013    0.000016777
      7        1           0.000014141    0.000003625    0.000005578
      8        1          -0.000011635    0.000006679    0.000008749
      9        1          -0.000003553    0.000008566   -0.000004884
     10        6          -0.000034150    0.000009969   -0.000005798
     11        1          -0.000006265    0.000002542   -0.000000539
     12        6           0.000005539    0.000004859    0.000080731
     13        6           0.000006862    0.000011125   -0.000281975
     14        1           0.000008525    0.000011089    0.000001053
     15        8          -0.000039094   -0.000013469    0.000065159
     16        6           0.000034695   -0.000009357    0.000075547
     17        6          -0.000021746   -0.000018277   -0.000038837
     18        6          -0.000081981   -0.000017205    0.000027777
     19        8           0.000060922    0.000009695   -0.000026100
     20        6          -0.000044642   -0.000006686   -0.000008055
     21        6           0.000000297   -0.000014896    0.000000081
     22        1           0.000000130   -0.000002355    0.000009133
     23        1          -0.000023979    0.000027775    0.000080174
     24        1           0.000008628   -0.000005114    0.000001241
     25        6           0.000059228   -0.000033896    0.000006602
     26        9           0.000012880    0.000016344   -0.000002880
     27        1          -0.000000011   -0.000011927    0.000002557
 -------------------------------------------------------------------
 Cartesian Forces:  Max     0.000281975 RMS     0.000040589

 GradGradGradGradGradGradGradGradGradGradGradGradGradGradGradGradGradGrad
 Berny optimization.
 Using GEDIIS/GDIIS optimizer.
 FormGI is forming the generalized inverse of G from B-inverse, IUseBI=4.
 GSVD:  received Info=                   1 from GESDD.
 Internal  Forces:  Max     0.000094601 RMS     0.000028941
 Search for a local minimum.
 Step number   9 out of a maximum of  134
 All quantities printed in internal units (Hartrees-Bohrs-Radians)
 Mixed Optimization -- En-DIIS/RFO-DIIS
 Swapping is turned off.
 Update second derivatives using D2CorX and points    1    2    3    4    5
                                                      6    7    8    9
 DE=  4.69D-07 DEPred=-1.24D-07 R=-3.79D+00
 Trust test=-3.79D+00 RLast= 3.42D-03 DXMaxT set to 7.50D-02
 ITU= -1  0  0  1  1 -1  1  1  0
     Eigenvalues ---    0.00613   0.01040   0.01075   0.01367   0.01427
     Eigenvalues ---    0.01670   0.02014   0.02065   0.02160   0.02166
     Eigenvalues ---    0.02203   0.02226   0.02239   0.02265   0.02296
     Eigenvalues ---    0.02441   0.02524   0.02608   0.05185   0.07322
     Eigenvalues ---    0.07407   0.07531   0.07623   0.07736   0.11857
     Eigenvalues ---    0.15469   0.15999   0.16000   0.16000   0.16000
     Eigenvalues ---    0.16001   0.16003   0.16016   0.16043   0.16224
     Eigenvalues ---    0.19510   0.20166   0.22066   0.22542   0.23097
     Eigenvalues ---    0.23907   0.24785   0.24918   0.25006   0.25631
     Eigenvalues ---    0.28658   0.30567   0.34064   0.34128   0.34340
     Eigenvalues ---    0.34394   0.34840   0.34844   0.35239   0.35554
     Eigenvalues ---    0.35657   0.36024   0.37416   0.38016   0.38469
     Eigenvalues ---    0.38612   0.38893   0.40142   0.42965   0.43270
     Eigenvalues ---    0.46209   0.47088   0.48571   0.51006   0.52122
     Eigenvalues ---    0.53251   0.57358   0.65164   0.82210   0.89565
 En-DIIS/RFO-DIIS IScMMF=        0 using points:     9    8    7    6    5
 RFO step:  Lambda=-2.15750823D-07.
 DidBck=T Rises=F RFO-DIIS coefs:    0.21661    0.59589    0.15110    0.02410    0.01231
 Iteration  1 RMS(Cart)=  0.00087817 RMS(Int)=  0.00000019
 Iteration  2 RMS(Cart)=  0.00000053 RMS(Int)=  0.00000002
 Variable       Old X    -DE/DX   Delta X   Delta X   Delta X     New X
                                 (Linear)    (Quad)   (Total)
    R1        2.05927   0.00000  -0.00001   0.00001   0.00000   2.05926
    R2        2.07194   0.00000   0.00000   0.00000   0.00000   2.07195
    R3        2.73727   0.00000   0.00000   0.00000   0.00000   2.73728
    R4        2.06715   0.00000   0.00001   0.00000   0.00000   2.06715
    R5        2.07062   0.00000   0.00000   0.00000   0.00000   2.07062
    R6        2.74069   0.00002   0.00003  -0.00001   0.00001   2.74070
    R7        2.05924   0.00000   0.00000   0.00000   0.00000   2.05924
    R8        2.06657   0.00000   0.00000   0.00000   0.00000   2.06657
    R9        2.53455  -0.00005  -0.00003   0.00001  -0.00002   2.53453
   R10        2.05237   0.00000   0.00001  -0.00001   0.00000   2.05237
   R11        2.57410   0.00000   0.00000  -0.00001   0.00000   2.57410
   R12        2.73644  -0.00002  -0.00005   0.00004  -0.00001   2.73643
   R13        2.03888   0.00001   0.00000   0.00001   0.00001   2.03888
   R14        2.34970   0.00002   0.00000   0.00001   0.00001   2.34971
   R15        2.81400   0.00001   0.00005  -0.00002   0.00003   2.81403
   R16        2.67102   0.00000  -0.00005   0.00004   0.00000   2.67102
   R17        2.65416  -0.00002  -0.00007   0.00003  -0.00004   2.65413
   R18        2.52296  -0.00005  -0.00005   0.00001  -0.00004   2.52292
   R19        2.64799  -0.00001  -0.00003   0.00002  -0.00002   2.64797
   R20        2.59150   0.00004   0.00009  -0.00004   0.00005   2.59155
   R21        2.04317   0.00000   0.00000   0.00000   0.00000   2.04317
   R22        1.86353   0.00001   0.00003  -0.00002   0.00001   1.86354
   R23        2.04640   0.00001   0.00000   0.00001   0.00001   2.04641
   R24        2.60609  -0.00001  -0.00005   0.00002  -0.00002   2.60607
   R25        2.62303   0.00003   0.00006  -0.00002   0.00003   2.62307
   R26        2.55469   0.00002   0.00013  -0.00007   0.00006   2.55475
   R27        2.04717   0.00000  -0.00005   0.00001  -0.00004   2.04713
    A1        1.89735   0.00000   0.00002  -0.00002   0.00000   1.89735
    A2        1.90900   0.00000   0.00003  -0.00002   0.00002   1.90901
    A3        1.89261   0.00000   0.00001  -0.00001   0.00000   1.89262
    A4        1.94335   0.00000  -0.00002   0.00001  -0.00001   1.94334
    A5        1.89455   0.00000  -0.00003   0.00002  -0.00001   1.89454
    A6        1.92605   0.00000  -0.00002   0.00001   0.00000   1.92604
    A7        1.94243   0.00000   0.00003  -0.00002   0.00000   1.94243
    A8        1.89381  -0.00001  -0.00003   0.00002  -0.00001   1.89380
    A9        1.89589   0.00000   0.00000   0.00000   0.00000   1.89589
   A10        1.91125   0.00002   0.00003  -0.00001   0.00002   1.91126
   A11        1.92737   0.00000  -0.00001   0.00001  -0.00001   1.92737
   A12        1.89207   0.00000  -0.00001   0.00001   0.00000   1.89207
   A13        2.05924   0.00003   0.00009  -0.00005   0.00004   2.05929
   A14        2.09897  -0.00006  -0.00015   0.00007  -0.00008   2.09889
   A15        2.11585   0.00004   0.00005  -0.00002   0.00002   2.11588
   A16        2.01741   0.00003   0.00008  -0.00003   0.00005   2.01746
   A17        2.21638  -0.00007  -0.00019   0.00009  -0.00010   2.21628
   A18        2.04937   0.00004   0.00011  -0.00006   0.00006   2.04942
   A19        2.06193   0.00005   0.00013  -0.00006   0.00008   2.06200
   A20        2.11394  -0.00002  -0.00004   0.00001  -0.00004   2.11391
   A21        2.10726  -0.00003  -0.00009   0.00005  -0.00004   2.10722
   A22        2.11137   0.00001  -0.00001   0.00002   0.00001   2.11138
   A23        2.09840  -0.00009  -0.00011  -0.00001  -0.00012   2.09829
   A24        2.07341   0.00008   0.00011  -0.00001   0.00010   2.07351
   A25        2.08225   0.00008   0.00008   0.00005   0.00013   2.08238
   A26        2.13521  -0.00009  -0.00006  -0.00006  -0.00013   2.13508
   A27        2.06572   0.00000  -0.00001   0.00002   0.00000   2.06572
   A28        2.14597   0.00002  -0.00006   0.00006   0.00000   2.14598
   A29        2.09072   0.00001   0.00006  -0.00003   0.00003   2.09075
   A30        2.04649  -0.00002   0.00000  -0.00003  -0.00003   2.04646
   A31        2.09948  -0.00001  -0.00002  -0.00001  -0.00003   2.09945
   A32        2.12222   0.00000   0.00005  -0.00002   0.00003   2.12225
   A33        2.06149   0.00001  -0.00003   0.00003   0.00000   2.06149
   A34        1.85501  -0.00006  -0.00023   0.00008  -0.00015   1.85486
   A35        2.05943   0.00000   0.00006  -0.00002   0.00004   2.05947
   A36        2.11003   0.00001   0.00001  -0.00001   0.00000   2.11003
   A37        2.11373  -0.00002  -0.00006   0.00002  -0.00004   2.11369
   A38        2.12624   0.00000   0.00001   0.00001   0.00002   2.12626
   A39        2.08090   0.00000  -0.00001   0.00000  -0.00001   2.08089
   A40        2.07605  -0.00001   0.00000   0.00000  -0.00001   2.07604
   A41        2.07418  -0.00002  -0.00004   0.00002  -0.00002   2.07415
   A42        2.11850   0.00001   0.00001   0.00001   0.00002   2.11853
   A43        2.09051   0.00001   0.00003  -0.00003   0.00000   2.09051
    D1       -0.24019   0.00000   0.00005   0.00000   0.00004  -0.24015
    D2        3.04429  -0.00001   0.00012   0.00001   0.00013   3.04442
    D3        1.85713   0.00000   0.00008  -0.00003   0.00005   1.85719
    D4       -1.14157  -0.00001   0.00016  -0.00002   0.00014  -1.14143
    D5       -2.32089  -0.00001   0.00002   0.00001   0.00003  -2.32086
    D6        0.96359  -0.00001   0.00009   0.00002   0.00012   0.96371
    D7       -1.11454   0.00000  -0.00022   0.00013  -0.00009  -1.11463
    D8        1.88271   0.00000  -0.00031   0.00012  -0.00019   1.88252
    D9        3.07484   0.00001  -0.00021   0.00012  -0.00009   3.07475
   D10       -0.21110   0.00001  -0.00030   0.00011  -0.00019  -0.21129
   D11        0.99259   0.00000  -0.00021   0.00012  -0.00009   0.99249
   D12       -2.29335   0.00000  -0.00030   0.00011  -0.00019  -2.29354
   D13        3.12116   0.00000  -0.00015   0.00006  -0.00009   3.12107
   D14       -0.02791  -0.00001  -0.00023   0.00006  -0.00017  -0.02808
   D15        0.12716  -0.00001  -0.00007   0.00008   0.00001   0.12717
   D16       -3.02190  -0.00001  -0.00016   0.00007  -0.00008  -3.02199
   D17       -3.11993   0.00001   0.00000   0.00006   0.00006  -3.11986
   D18        0.03282   0.00000  -0.00006   0.00006   0.00001   0.03283
   D19        0.01407   0.00000  -0.00009   0.00006  -0.00003   0.01405
   D20       -3.11636   0.00000  -0.00014   0.00006  -0.00008  -3.11644
   D21        0.01404  -0.00005  -0.00104   0.00009  -0.00095   0.01309
   D22       -3.12600   0.00004   0.00050   0.00018   0.00068  -3.12532
   D23       -3.13867  -0.00004  -0.00098   0.00009  -0.00089  -3.13956
   D24        0.00448   0.00004   0.00056   0.00018   0.00074   0.00522
   D25        3.13446  -0.00005  -0.00131   0.00002  -0.00129   3.13317
   D26       -0.00754  -0.00006  -0.00148   0.00002  -0.00146  -0.00900
   D27       -0.00561   0.00003   0.00020   0.00011   0.00030  -0.00531
   D28        3.13558   0.00002   0.00002   0.00011   0.00013   3.13571
   D29        0.00122  -0.00006  -0.00064  -0.00009  -0.00073   0.00049
   D30       -3.14079  -0.00003  -0.00038  -0.00004  -0.00042  -3.14121
   D31       -3.13999  -0.00005  -0.00047  -0.00009  -0.00056  -3.14055
   D32        0.00119  -0.00002  -0.00021  -0.00004  -0.00025   0.00094
   D33        3.14119   0.00003   0.00036   0.00002   0.00038   3.14157
   D34       -0.00057   0.00002   0.00020   0.00002   0.00022  -0.00035
   D35       -0.00080   0.00002   0.00019   0.00002   0.00021  -0.00059
   D36        3.14063   0.00001   0.00002   0.00002   0.00005   3.14068
   D37        0.00334  -0.00006  -0.00044  -0.00011  -0.00055   0.00279
   D38       -3.13785  -0.00009  -0.00070  -0.00016  -0.00085  -3.13870
   D39        3.14142   0.00000  -0.00001   0.00001  -0.00001   3.14141
   D40       -0.00081   0.00001   0.00010   0.00004   0.00014  -0.00067
   D41       -0.00057   0.00002   0.00023   0.00005   0.00028  -0.00028
   D42        3.14039   0.00003   0.00035   0.00008   0.00043   3.14082
   D43        0.00000   0.00000  -0.00006   0.00001  -0.00005  -0.00005
   D44        3.14156  -0.00001  -0.00012   0.00001  -0.00012   3.14145
   D45       -3.14143   0.00001   0.00010   0.00001   0.00011  -3.14132
   D46        0.00013   0.00000   0.00004   0.00000   0.00004   0.00017
   D47        0.00000   0.00000   0.00003  -0.00001   0.00002   0.00003
   D48       -3.14156   0.00000  -0.00003  -0.00002  -0.00006   3.14157
   D49        3.14094   0.00002   0.00015   0.00003   0.00017   3.14112
   D50       -0.00062   0.00001   0.00009   0.00001   0.00010  -0.00052
   D51        0.00041  -0.00001  -0.00005  -0.00002  -0.00007   0.00034
   D52       -3.14122   0.00000   0.00001   0.00000   0.00001  -3.14121
   D53       -3.14115   0.00000   0.00001  -0.00001   0.00000  -3.14116
   D54        0.00041   0.00001   0.00007   0.00000   0.00007   0.00048
         Item               Value     Threshold  Converged?
 Maximum Force            0.000095     0.000450     YES
 RMS     Force            0.000029     0.000300     YES
 Maximum Displacement     0.003205     0.001800     NO 
 RMS     Displacement     0.000878     0.001200     YES
 Predicted change in Energy=-2.874747D-07
 GradGradGradGradGradGradGradGradGradGradGradGradGradGradGradGradGradGrad

                          Input orientation:                          
 ---------------------------------------------------------------------
 Center     Atomic      Atomic             Coordinates (Angstroms)
 Number     Number       Type             X           Y           Z
 ---------------------------------------------------------------------
      1          6           0       -3.749750    2.247726   -0.047736
      2          1           0       -4.760931    2.635391   -0.169009
      3          1           0       -3.334632    2.635260    0.890158
      4          6           0       -5.074970    0.151588    0.105047
      5          1           0       -5.516667    0.372220    1.083230
      6          7           0       -3.786746    0.799696   -0.049391
      7          1           0       -3.137169    2.613628   -0.876866
      8          1           0       -4.952352   -0.927555    0.016365
      9          1           0       -5.766204    0.485743   -0.673708
     10          6           0       -2.646157    0.094478   -0.025277
     11          1           0       -2.762426   -0.985216   -0.008314
     12          6           0       -1.376867    0.588805   -0.028241
     13          6           0       -0.277024   -0.353117   -0.026637
     14          1           0       -1.192461    1.651838   -0.021437
     15          8           0       -0.484427   -1.579072   -0.036620
     16          6           0        1.129180    0.136526   -0.008807
     17          6           0        2.187858   -0.799894    0.002841
     18          6           0        1.448297    1.504287   -0.003735
     19          8           0        1.989729   -2.120174   -0.001926
     20          6           0        3.514889   -0.350243    0.020118
     21          6           0        2.758567    1.908793    0.012860
     22          1           0        0.680238    2.265200   -0.012952
     23          1           0        1.012684   -2.252971   -0.017041
     24          1           0        4.303163   -1.092704    0.028891
     25          6           0        3.805780    0.997791    0.025176
     26          9           0        3.041247    3.230815    0.017271
     27          1           0        4.828706    1.354119    0.038524
 ---------------------------------------------------------------------
                    Distance matrix (angstroms):
                    1          2          3          4          5
     1  C    0.000000
     2  H    1.089714   0.000000
     3  H    1.096426   1.776559   0.000000
     4  C    2.484622   2.518532   3.132699   0.000000
     5  H    2.814001   2.694658   3.149588   1.095726   0.000000
     6  N    1.448504   2.081615   2.111032   1.450316   2.111443
     7  H    1.093891   1.771479   1.778154   3.283423   3.811548
     8  H    3.395994   3.572896   4.009263   1.089702   1.773716
     9  H    2.750002   2.426166   3.602588   1.093582   1.778197
    10  C    2.419690   3.308952   2.787040   2.432978   3.089621
    11  H    3.380573   4.138675   3.773926   2.579348   3.258825
    12  C    2.895337   3.957299   2.977294   3.726244   4.291879
    13  C    4.338739   5.390443   4.372629   4.826216   5.404792
    14  H    2.625929   3.704474   2.527256   4.164208   4.642895
    15  O    5.030591   6.005640   5.171381   4.907988   5.512263
    16  C    5.316262   6.400265   5.193980   6.205213   6.739093
    17  C    6.674260   7.753476   6.563956   7.325602   7.867706
    18  C    5.251127   6.313574   4.995453   6.662931   7.139593
    19  O    7.212647   8.259220   7.194358   7.421747   7.983456
    20  C    7.715505   8.799941   7.522375   8.604924   9.122563
    21  C    6.517418   7.556710   6.198748   8.028734   8.484471
    22  H    4.430160   5.455980   4.131796   6.132186   6.571653
    23  H    6.552709   7.566624   6.604314   6.546475   7.122825
    24  H    8.718586   9.802839   8.542564   9.460626   9.984322
    25  C    7.658570   8.723988   7.376651   8.921332   9.403129
    26  F    6.862094   7.827082   6.462851   8.681148   9.085468
    27  H    8.625304   9.677079   8.307026   9.976638  10.444246
                    6          7          8          9         10
     6  N    0.000000
     7  H    2.096906   0.000000
     8  H    2.084792   4.078324   0.000000
     9  H    2.099188   3.388361   1.770866   0.000000
    10  C    1.341215   2.704147   2.522860   3.210646   0.000000
    11  H    2.058355   3.721087   2.190824   3.410154   1.086069
    12  C    2.419182   2.814025   3.883997   4.437740   1.362155
    13  C    3.694272   4.207719   4.710682   5.590482   2.411044
    14  H    2.730796   2.332099   4.559767   4.764909   2.130402
    15  O    4.069891   5.032076   4.515489   5.706708   2.733857
    16  C    4.960622   5.009121   6.173972   6.936163   3.775606
    17  C    6.185250   6.386073   7.141364   8.085647   4.916136
    18  C    5.282444   4.797863   6.847084   7.316783   4.330424
    19  O    6.472678   7.032744   7.043803   8.209543   5.137769
    20  C    7.391959   7.337505   8.486900   9.344461   6.177242
    21  C    6.638908   6.004008   8.216030   8.669958   5.701248
    22  H    4.701381   3.929421   6.474614   6.720096   3.972038
    23  H    5.688088   6.453244   6.110605   7.340646   4.347148
    24  H    8.308666   8.361568   9.256996  10.216520   7.050204
    25  C    7.595476   7.185342   8.967269   9.611114   6.515060
    26  F    7.248191   6.273215   9.010531   9.251166   6.494996
    27  H    8.633720   8.116616  10.043685  10.654270   7.580523
                   11         12         13         14         15
    11  H    0.000000
    12  C    2.097073   0.000000
    13  C    2.564588   1.448059   0.000000
    14  H    3.069041   1.078930   2.204064   0.000000
    15  O    2.354304   2.344400   1.243415   3.307616   0.000000
    16  C    4.050049   2.546606   1.489119   2.772426   2.355371
    17  C    4.953765   3.825796   2.505219   4.175899   2.783843
    18  C    4.891608   2.969892   2.535193   2.644936   3.639176
    19  O    4.885811   4.321253   2.874242   4.935057   2.532872
    20  C    6.309412   4.981307   3.792202   5.115583   4.184228
    21  C    6.233546   4.341183   3.785843   3.959523   4.762841
    22  H    4.734677   2.653717   2.787853   1.970606   4.016893
    23  H    3.982303   3.712919   2.296276   4.484442   1.641908
    24  H    7.066504   5.923974   4.639847   6.143038   4.812676
    25  C    6.861106   5.199033   4.300805   5.041067   5.004989
    26  F    7.173437   5.148011   4.884406   4.518733   5.963916
    27  H    7.943548   6.252942   5.383992   6.028821   6.069483
                   16         17         18         19         20
    16  C    0.000000
    17  C    1.413442   0.000000
    18  C    1.404504   2.419967   0.000000
    19  O    2.415220   1.335072   3.664679   0.000000
    20  C    2.435033   1.401247   2.776806   2.336505   0.000000
    21  C    2.407551   2.768175   1.371389   4.101695   2.382292
    22  H    2.175504   3.415841   1.081197   4.576723   3.857055
    23  H    2.392349   1.868921   3.782449   0.986145   3.143690
    24  H    3.403909   2.135633   3.859493   2.531525   1.082913
    25  C    2.811961   2.418644   2.411452   3.608391   1.379072
    26  F    3.637487   4.120084   2.349219   5.453361   3.612246
    27  H    3.895031   3.408096   3.384006   4.486885   2.152046
                   21         22         23         24         25
    21  C    0.000000
    22  H    2.108825   0.000000
    23  H    4.513234   4.530387   0.000000
    24  H    3.375650   4.939924   3.489353   0.000000
    25  C    1.388067   3.372949   4.286097   2.148854   0.000000
    26  F    1.351914   2.551017   5.847064   4.503930   2.360290
    27  H    2.143314   4.247646   5.251305   2.502645   1.083293
                   26         27
    26  F    0.000000
    27  H    2.591804   0.000000
 Stoichiometry    C11H12FNO2
 Framework group  C1[X(C11H12FNO2)]
 Deg. of freedom    75
 Full point group                 C1      NOp   1
 Largest Abelian subgroup         C1      NOp   1
 Largest concise Abelian subgroup C1      NOp   1
                         Standard orientation:                         
 ---------------------------------------------------------------------
 Center     Atomic      Atomic             Coordinates (Angstroms)
 Number     Number       Type             X           Y           Z
 ---------------------------------------------------------------------
      1          6           0        3.773719    1.787609    0.045851
      2          1           0        4.784960    2.175226    0.166776
      3          1           0        3.358265    2.175232   -0.891857
      4          6           0        5.098802   -0.308568   -0.107589
      5          1           0        5.540141   -0.087877   -1.085920
      6          7           0        3.810661    0.339577    0.047381
      7          1           0        3.161462    2.153470    0.875239
      8          1           0        4.976176   -1.387713   -0.018945
      9          1           0        5.790340    0.025501    0.670933
     10          6           0        2.670035   -0.365595    0.023640
     11          1           0        2.786257   -1.445292    0.006550
     12          6           0        1.400765    0.128780    0.027116
     13          6           0        0.300886   -0.813100    0.025851
     14          1           0        1.216398    1.191821    0.020463
     15          8           0        0.508246   -2.039063    0.035662
     16          6           0       -1.105305   -0.323402    0.008585
     17          6           0       -2.164024   -1.259780   -0.002739
     18          6           0       -1.424372    1.044371    0.003737
     19          8           0       -1.965943   -2.580069    0.001852
     20          6           0       -3.491043   -0.810078   -0.019485
     21          6           0       -2.734633    1.448929   -0.012336
     22          1           0       -0.656281    1.805255    0.012726
     23          1           0       -0.988897   -2.712904    0.016592
     24          1           0       -4.279349   -1.552508   -0.028020
     25          6           0       -3.781885    0.537968   -0.024330
     26          9           0       -3.017264    2.770962   -0.016540
     27          1           0       -4.804802    0.894335   -0.037268
 ---------------------------------------------------------------------
 Rotational constants (GHZ):      1.0613111      0.2927762      0.2302058
 Standard basis: 6-311++G(d,p) (5D, 7F)
 There are   429 symmetry adapted cartesian basis functions of A   symmetry.
 There are   414 symmetry adapted basis functions of A   symmetry.
   414 basis functions,   648 primitive gaussians,   429 cartesian basis functions
    55 alpha electrons       55 beta electrons
       nuclear repulsion energy       944.1972738621 Hartrees.
 NAtoms=   27 NActive=   27 NUniq=   27 SFac= 1.00D+00 NAtFMM=   60 NAOKFM=F Big=F
 Integral buffers will be    131072 words long.
 Raffenetti 2 integral format.
 Two-electron integral symmetry is turned on.
 Nuclear repulsion after empirical dispersion term =      944.1821318563 Hartrees.
 One-electron integrals computed using PRISM.
 NBasis=   414 RedAO= T EigKep=  1.73D-06  NBF=   414
 NBsUse=   411 1.00D-06 EigRej=  7.34D-07 NBFU=   411
 Initial guess from the checkpoint file:  "4_opt_DCM.chk"
 B after Tr=     0.000000    0.000000    0.000000
         Rot=    1.000000    0.000007    0.000000    0.000022 Ang=   0.00 deg.
 Requested convergence on RMS density matrix=1.00D-08 within 128 cycles.
 Requested convergence on MAX density matrix=1.00D-06.
 Requested convergence on             energy=1.00D-06.
 No special actions if energy rises.
 SCF Done:  E(RwB97XD) =  -731.392711759     A.U. after    9 cycles
            NFock=  9  Conv=0.76D-08     -V/T= 2.0037
 Calling FoFJK, ICntrl=      2127 FMM=F ISym2X=0 I1Cent= 0 IOpClX= 0 NMat=1 NMatS=1 NMatT=0.
 ***** Axes restored to original set *****
 -------------------------------------------------------------------
 Center     Atomic                   Forces (Hartrees/Bohr)
 Number     Number              X              Y              Z
 -------------------------------------------------------------------
      1        6           0.000009404    0.000004027    0.000001431
      2        1           0.000007140    0.000006404   -0.000003663
      3        1           0.000003142    0.000004551    0.000004013
      4        6          -0.000003617    0.000004283   -0.000006042
      5        1          -0.000000625    0.000008197   -0.000005211
      6        7           0.000017895    0.000002604    0.000023408
      7        1           0.000011930    0.000002982    0.000005484
      8        1          -0.000007761    0.000007082    0.000007899
      9        1          -0.000002436    0.000008015   -0.000004913
     10        6          -0.000022094    0.000006186   -0.000019365
     11        1          -0.000005868    0.000002859   -0.000000276
     12        6           0.000006231    0.000005017    0.000018245
     13        6          -0.000002717   -0.000003940   -0.000063458
     14        1           0.000003810    0.000003161   -0.000002023
     15        8           0.000003479   -0.000002131    0.000010586
     16        6           0.000025809   -0.000011601    0.000016582
     17        6          -0.000010318    0.000001254   -0.000009768
     18        6          -0.000036872    0.000002044    0.000007546
     19        8          -0.000001178   -0.000003852   -0.000011727
     20        6          -0.000036480   -0.000005194   -0.000002592
     21        6          -0.000004457   -0.000007186    0.000001092
     22        1           0.000010059   -0.000003360    0.000004942
     23        1          -0.000016818    0.000001572    0.000022746
     24        1           0.000002743   -0.000007503   -0.000000226
     25        6           0.000027534   -0.000012541    0.000002533
     26        9           0.000007669   -0.000005918    0.000001165
     27        1           0.000014396   -0.000007012    0.000001592
 -------------------------------------------------------------------
 Cartesian Forces:  Max     0.000063458 RMS     0.000013082

 GradGradGradGradGradGradGradGradGradGradGradGradGradGradGradGradGradGrad
 Berny optimization.
 Using GEDIIS/GDIIS optimizer.
 FormGI is forming the generalized inverse of G from B-inverse, IUseBI=4.
 Internal  Forces:  Max     0.000042454 RMS     0.000011147
 Search for a local minimum.
 Step number  10 out of a maximum of  134
 All quantities printed in internal units (Hartrees-Bohrs-Radians)
 Mixed Optimization -- En-DIIS/RFO-DIIS
 Swapping is turned off.
 Update second derivatives using D2CorX and points    1    2    3    4    5
                                                      6    7    9   10
 DE= -3.95D-07 DEPred=-2.87D-07 R= 1.37D+00
 Trust test= 1.37D+00 RLast= 3.11D-03 DXMaxT set to 7.50D-02
 ITU=  0 -1  0  0  1  1 -1  1  1  0
     Eigenvalues ---    0.00616   0.01041   0.01063   0.01367   0.01422
     Eigenvalues ---    0.01669   0.02015   0.02064   0.02160   0.02166
     Eigenvalues ---    0.02203   0.02226   0.02239   0.02265   0.02296
     Eigenvalues ---    0.02446   0.02524   0.02606   0.04514   0.07300
     Eigenvalues ---    0.07412   0.07437   0.07589   0.07631   0.13569
     Eigenvalues ---    0.15492   0.15995   0.16000   0.16000   0.16000
     Eigenvalues ---    0.16001   0.16003   0.16007   0.16021   0.16210
     Eigenvalues ---    0.19664   0.20092   0.22044   0.22102   0.22876
     Eigenvalues ---    0.24088   0.24666   0.24869   0.25003   0.25096
     Eigenvalues ---    0.27410   0.30581   0.34063   0.34121   0.34339
     Eigenvalues ---    0.34390   0.34840   0.34840   0.35235   0.35558
     Eigenvalues ---    0.35600   0.36026   0.37231   0.37733   0.38263
     Eigenvalues ---    0.38442   0.38916   0.39625   0.42582   0.43279
     Eigenvalues ---    0.46108   0.47160   0.48523   0.51028   0.52336
     Eigenvalues ---    0.53771   0.56748   0.66335   0.84335   0.95658
 En-DIIS/RFO-DIIS IScMMF=        0 using points:    10    9    8    7    6
 RFO step:  Lambda=-3.53164838D-08.
 DidBck=T Rises=F RFO-DIIS coefs:    0.67479   -0.07260    0.54545   -0.11181   -0.03584
 Iteration  1 RMS(Cart)=  0.00016807 RMS(Int)=  0.00000002
 Iteration  2 RMS(Cart)=  0.00000002 RMS(Int)=  0.00000001
 Variable       Old X    -DE/DX   Delta X   Delta X   Delta X     New X
                                 (Linear)    (Quad)   (Total)
    R1        2.05926   0.00000   0.00000   0.00000   0.00000   2.05926
    R2        2.07195   0.00000   0.00000   0.00000   0.00000   2.07195
    R3        2.73728   0.00000   0.00000   0.00000   0.00000   2.73727
    R4        2.06715   0.00000   0.00000   0.00000   0.00000   2.06715
    R5        2.07062   0.00000   0.00000   0.00000   0.00000   2.07062
    R6        2.74070   0.00001   0.00001   0.00000   0.00001   2.74071
    R7        2.05924   0.00000   0.00000   0.00000   0.00000   2.05924
    R8        2.06657   0.00000   0.00000   0.00000   0.00000   2.06657
    R9        2.53453  -0.00003  -0.00001  -0.00001  -0.00002   2.53451
   R10        2.05237   0.00000   0.00000   0.00000   0.00000   2.05237
   R11        2.57410   0.00000   0.00001   0.00000   0.00000   2.57410
   R12        2.73643  -0.00001  -0.00003   0.00003   0.00000   2.73643
   R13        2.03888   0.00000   0.00000   0.00001   0.00000   2.03889
   R14        2.34971   0.00000  -0.00001   0.00001   0.00000   2.34971
   R15        2.81403  -0.00001   0.00000  -0.00001   0.00000   2.81403
   R16        2.67102  -0.00003  -0.00002  -0.00001  -0.00003   2.67099
   R17        2.65413   0.00000   0.00000   0.00000   0.00000   2.65413
   R18        2.52292   0.00000   0.00001  -0.00001   0.00000   2.52292
   R19        2.64797  -0.00001  -0.00001   0.00000  -0.00001   2.64797
   R20        2.59155   0.00002   0.00001   0.00000   0.00001   2.59156
   R21        2.04317  -0.00001  -0.00001   0.00000  -0.00001   2.04316
   R22        1.86354   0.00001   0.00002  -0.00002   0.00000   1.86354
   R23        2.04641   0.00000   0.00000   0.00001   0.00000   2.04641
   R24        2.60607   0.00000   0.00000   0.00000   0.00000   2.60607
   R25        2.62307   0.00002   0.00001   0.00000   0.00001   2.62308
   R26        2.55475   0.00000   0.00002   0.00000   0.00001   2.55476
   R27        2.04713   0.00001   0.00001  -0.00001   0.00000   2.04713
    A1        1.89735   0.00000   0.00001  -0.00001   0.00000   1.89735
    A2        1.90901   0.00000   0.00001   0.00000   0.00001   1.90902
    A3        1.89262   0.00000   0.00001   0.00000   0.00001   1.89262
    A4        1.94334   0.00000   0.00000   0.00000   0.00000   1.94334
    A5        1.89454   0.00000  -0.00001   0.00001   0.00000   1.89454
    A6        1.92604   0.00000  -0.00001   0.00000  -0.00001   1.92603
    A7        1.94243   0.00000   0.00001  -0.00002  -0.00001   1.94242
    A8        1.89380  -0.00001  -0.00002   0.00001  -0.00001   1.89379
    A9        1.89589   0.00000   0.00000   0.00000   0.00000   1.89589
   A10        1.91126   0.00001   0.00001   0.00000   0.00001   1.91128
   A11        1.92737   0.00000   0.00000   0.00000   0.00000   1.92737
   A12        1.89207   0.00000   0.00000   0.00001   0.00000   1.89207
   A13        2.05929   0.00001   0.00003  -0.00002   0.00001   2.05929
   A14        2.09889  -0.00004  -0.00004   0.00001  -0.00003   2.09887
   A15        2.11588   0.00002   0.00002   0.00001   0.00003   2.11591
   A16        2.01746   0.00002   0.00001   0.00001   0.00002   2.01748
   A17        2.21628  -0.00004  -0.00005   0.00000  -0.00005   2.21623
   A18        2.04942   0.00002   0.00003  -0.00001   0.00002   2.04945
   A19        2.06200   0.00003   0.00003  -0.00001   0.00002   2.06203
   A20        2.11391  -0.00001   0.00000  -0.00002  -0.00002   2.11389
   A21        2.10722  -0.00001  -0.00003   0.00002  -0.00001   2.10721
   A22        2.11138   0.00002  -0.00001   0.00004   0.00003   2.11141
   A23        2.09829  -0.00002   0.00000  -0.00002  -0.00003   2.09826
   A24        2.07351   0.00000   0.00001  -0.00001   0.00000   2.07351
   A25        2.08238  -0.00002  -0.00003   0.00002  -0.00001   2.08237
   A26        2.13508   0.00000   0.00003  -0.00004  -0.00001   2.13508
   A27        2.06572   0.00001   0.00000   0.00001   0.00001   2.06574
   A28        2.14598  -0.00002  -0.00001   0.00000  -0.00002   2.14596
   A29        2.09075   0.00000  -0.00001   0.00001   0.00001   2.09076
   A30        2.04646   0.00002   0.00002  -0.00001   0.00001   2.04646
   A31        2.09945  -0.00001   0.00001  -0.00004  -0.00003   2.09942
   A32        2.12225   0.00001   0.00001   0.00002   0.00003   2.12227
   A33        2.06149   0.00000  -0.00002   0.00002   0.00000   2.06149
   A34        1.85486  -0.00001   0.00000  -0.00003  -0.00003   1.85483
   A35        2.05947   0.00000   0.00000   0.00001   0.00001   2.05948
   A36        2.11003   0.00001   0.00002  -0.00002   0.00000   2.11003
   A37        2.11369  -0.00001  -0.00001   0.00001  -0.00001   2.11368
   A38        2.12626   0.00000   0.00000   0.00003   0.00003   2.12629
   A39        2.08089   0.00000   0.00000  -0.00001  -0.00001   2.08088
   A40        2.07604  -0.00001   0.00000  -0.00002  -0.00002   2.07602
   A41        2.07415  -0.00002  -0.00002  -0.00001  -0.00002   2.07413
   A42        2.11853   0.00001  -0.00001   0.00003   0.00003   2.11855
   A43        2.09051   0.00001   0.00002  -0.00003   0.00000   2.09050
    D1       -0.24015   0.00000  -0.00007  -0.00006  -0.00013  -0.24028
    D2        3.04442  -0.00001  -0.00014  -0.00007  -0.00022   3.04421
    D3        1.85719   0.00000  -0.00005  -0.00007  -0.00012   1.85707
    D4       -1.14143  -0.00001  -0.00013  -0.00008  -0.00021  -1.14164
    D5       -2.32086   0.00000  -0.00007  -0.00006  -0.00013  -2.32100
    D6        0.96371  -0.00001  -0.00015  -0.00007  -0.00022   0.96349
    D7       -1.11463   0.00000   0.00001   0.00013   0.00014  -1.11449
    D8        1.88252   0.00000   0.00008   0.00015   0.00023   1.88275
    D9        3.07475   0.00001   0.00002   0.00013   0.00015   3.07489
   D10       -0.21129   0.00001   0.00009   0.00014   0.00024  -0.21105
   D11        0.99249   0.00000   0.00001   0.00012   0.00013   0.99262
   D12       -2.29354   0.00000   0.00008   0.00013   0.00022  -2.29332
   D13        3.12107   0.00000   0.00000   0.00003   0.00003   3.12110
   D14       -0.02808   0.00000   0.00001   0.00002   0.00004  -0.02805
   D15        0.12717   0.00000  -0.00008   0.00002  -0.00006   0.12711
   D16       -3.02199  -0.00001  -0.00007   0.00001  -0.00006  -3.02204
   D17       -3.11986   0.00000  -0.00003   0.00004   0.00000  -3.11986
   D18        0.03283   0.00000  -0.00003   0.00002  -0.00001   0.03282
   D19        0.01405   0.00000  -0.00002   0.00003   0.00001   0.01405
   D20       -3.11644   0.00000  -0.00002   0.00001  -0.00001  -3.11645
   D21        0.01309  -0.00001  -0.00006   0.00013   0.00007   0.01315
   D22       -3.12532   0.00001  -0.00003   0.00009   0.00007  -3.12525
   D23       -3.13956  -0.00001  -0.00007   0.00015   0.00008  -3.13948
   D24        0.00522   0.00001  -0.00003   0.00011   0.00008   0.00530
   D25        3.13317  -0.00001  -0.00005   0.00016   0.00010   3.13327
   D26       -0.00900  -0.00001  -0.00006   0.00017   0.00011  -0.00889
   D27       -0.00531   0.00001  -0.00001   0.00012   0.00011  -0.00520
   D28        3.13571   0.00000  -0.00002   0.00013   0.00011   3.13582
   D29        0.00049  -0.00002  -0.00001   0.00000  -0.00001   0.00048
   D30       -3.14121  -0.00001  -0.00001  -0.00001  -0.00002  -3.14123
   D31       -3.14055  -0.00001   0.00000  -0.00001  -0.00001  -3.14056
   D32        0.00094  -0.00001   0.00000  -0.00002  -0.00002   0.00091
   D33        3.14157   0.00001   0.00002   0.00000   0.00001   3.14159
   D34       -0.00035   0.00001   0.00001   0.00001   0.00002  -0.00032
   D35       -0.00059   0.00001   0.00001   0.00001   0.00002  -0.00057
   D36        3.14068   0.00000   0.00000   0.00002   0.00003   3.14070
   D37        0.00279  -0.00002   0.00000  -0.00005  -0.00005   0.00273
   D38       -3.13870  -0.00003   0.00000  -0.00005  -0.00005  -3.13874
   D39        3.14141   0.00000   0.00000   0.00001   0.00001   3.14142
   D40       -0.00067   0.00000   0.00000   0.00002   0.00002  -0.00065
   D41       -0.00028   0.00001   0.00000   0.00000   0.00000  -0.00028
   D42        3.14082   0.00001  -0.00001   0.00001   0.00001   3.14083
   D43       -0.00005   0.00000  -0.00001   0.00001   0.00000  -0.00005
   D44        3.14145   0.00000  -0.00001   0.00001   0.00000   3.14145
   D45       -3.14132   0.00000   0.00000  -0.00001  -0.00001  -3.14133
   D46        0.00017   0.00000   0.00000  -0.00001  -0.00001   0.00016
   D47        0.00003   0.00000   0.00001   0.00000   0.00000   0.00003
   D48        3.14157   0.00000   0.00001  -0.00001   0.00000   3.14157
   D49        3.14112   0.00000   0.00000   0.00001   0.00001   3.14113
   D50       -0.00052   0.00000   0.00000   0.00000   0.00000  -0.00052
   D51        0.00034   0.00000   0.00000  -0.00001  -0.00001   0.00033
   D52       -3.14121   0.00000   0.00000   0.00000   0.00000  -3.14121
   D53       -3.14116   0.00000   0.00000  -0.00001  -0.00001  -3.14117
   D54        0.00048   0.00000   0.00000  -0.00001   0.00000   0.00048
         Item               Value     Threshold  Converged?
 Maximum Force            0.000042     0.000450     YES
 RMS     Force            0.000011     0.000300     YES
 Maximum Displacement     0.000623     0.001800     YES
 RMS     Displacement     0.000168     0.001200     YES
 Predicted change in Energy=-2.136439D-08
 Optimization completed.
    -- Stationary point found.
                           ----------------------------
                           !   Optimized Parameters   !
                           ! (Angstroms and Degrees)  !
 --------------------------                            --------------------------
 ! Name  Definition              Value          Derivative Info.                !
 --------------------------------------------------------------------------------
 ! R1    R(1,2)                  1.0897         -DE/DX =    0.0                 !
 ! R2    R(1,3)                  1.0964         -DE/DX =    0.0                 !
 ! R3    R(1,6)                  1.4485         -DE/DX =    0.0                 !
 ! R4    R(1,7)                  1.0939         -DE/DX =    0.0                 !
 ! R5    R(4,5)                  1.0957         -DE/DX =    0.0                 !
 ! R6    R(4,6)                  1.4503         -DE/DX =    0.0                 !
 ! R7    R(4,8)                  1.0897         -DE/DX =    0.0                 !
 ! R8    R(4,9)                  1.0936         -DE/DX =    0.0                 !
 ! R9    R(6,10)                 1.3412         -DE/DX =    0.0                 !
 ! R10   R(10,11)                1.0861         -DE/DX =    0.0                 !
 ! R11   R(10,12)                1.3622         -DE/DX =    0.0                 !
 ! R12   R(12,13)                1.4481         -DE/DX =    0.0                 !
 ! R13   R(12,14)                1.0789         -DE/DX =    0.0                 !
 ! R14   R(13,15)                1.2434         -DE/DX =    0.0                 !
 ! R15   R(13,16)                1.4891         -DE/DX =    0.0                 !
 ! R16   R(16,17)                1.4134         -DE/DX =    0.0                 !
 ! R17   R(16,18)                1.4045         -DE/DX =    0.0                 !
 ! R18   R(17,19)                1.3351         -DE/DX =    0.0                 !
 ! R19   R(17,20)                1.4012         -DE/DX =    0.0                 !
 ! R20   R(18,21)                1.3714         -DE/DX =    0.0                 !
 ! R21   R(18,22)                1.0812         -DE/DX =    0.0                 !
 ! R22   R(19,23)                0.9861         -DE/DX =    0.0                 !
 ! R23   R(20,24)                1.0829         -DE/DX =    0.0                 !
 ! R24   R(20,25)                1.3791         -DE/DX =    0.0                 !
 ! R25   R(21,25)                1.3881         -DE/DX =    0.0                 !
 ! R26   R(21,26)                1.3519         -DE/DX =    0.0                 !
 ! R27   R(25,27)                1.0833         -DE/DX =    0.0                 !
 ! A1    A(2,1,3)              108.7102         -DE/DX =    0.0                 !
 ! A2    A(2,1,6)              109.3784         -DE/DX =    0.0                 !
 ! A3    A(2,1,7)              108.439          -DE/DX =    0.0                 !
 ! A4    A(3,1,6)              111.3451         -DE/DX =    0.0                 !
 ! A5    A(3,1,7)              108.5492         -DE/DX =    0.0                 !
 ! A6    A(6,1,7)              110.3542         -DE/DX =    0.0                 !
 ! A7    A(5,4,6)              111.293          -DE/DX =    0.0                 !
 ! A8    A(5,4,8)              108.5068         -DE/DX =    0.0                 !
 ! A9    A(5,4,9)              108.6265         -DE/DX =    0.0                 !
 ! A10   A(6,4,8)              109.5074         -DE/DX =    0.0                 !
 ! A11   A(6,4,9)              110.43           -DE/DX =    0.0                 !
 ! A12   A(8,4,9)              108.4074         -DE/DX =    0.0                 !
 ! A13   A(1,6,4)              117.9883         -DE/DX =    0.0                 !
 ! A14   A(1,6,10)             120.2578         -DE/DX =    0.0                 !
 ! A15   A(4,6,10)             121.2309         -DE/DX =    0.0                 !
 ! A16   A(6,10,11)            115.5919         -DE/DX =    0.0                 !
 ! A17   A(6,10,12)            126.9835         -DE/DX =    0.0                 !
 ! A18   A(11,10,12)           117.4233         -DE/DX =    0.0                 !
 ! A19   A(10,12,13)           118.144          -DE/DX =    0.0                 !
 ! A20   A(10,12,14)           121.118          -DE/DX =    0.0                 !
 ! A21   A(13,12,14)           120.7349         -DE/DX =    0.0                 !
 ! A22   A(12,13,15)           120.9733         -DE/DX =    0.0                 !
 ! A23   A(12,13,16)           120.223          -DE/DX =    0.0                 !
 ! A24   A(15,13,16)           118.8034         -DE/DX =    0.0                 !
 ! A25   A(13,16,17)           119.3116         -DE/DX =    0.0                 !
 ! A26   A(13,16,18)           122.3313         -DE/DX =    0.0                 !
 ! A27   A(17,16,18)           118.3572         -DE/DX =    0.0                 !
 ! A28   A(16,17,19)           122.9553         -DE/DX =    0.0                 !
 ! A29   A(16,17,20)           119.7914         -DE/DX =    0.0                 !
 ! A30   A(19,17,20)           117.2533         -DE/DX =    0.0                 !
 ! A31   A(16,18,21)           120.2897         -DE/DX =    0.0                 !
 ! A32   A(16,18,22)           121.5957         -DE/DX =    0.0                 !
 ! A33   A(21,18,22)           118.1146         -DE/DX =    0.0                 !
 ! A34   A(17,19,23)           106.2757         -DE/DX =    0.0                 !
 ! A35   A(17,20,24)           117.999          -DE/DX =    0.0                 !
 ! A36   A(17,20,25)           120.8957         -DE/DX =    0.0                 !
 ! A37   A(24,20,25)           121.1053         -DE/DX =    0.0                 !
 ! A38   A(18,21,25)           121.8258         -DE/DX =    0.0                 !
 ! A39   A(18,21,26)           119.226          -DE/DX =    0.0                 !
 ! A40   A(25,21,26)           118.9482         -DE/DX =    0.0                 !
 ! A41   A(20,25,21)           118.8403         -DE/DX =    0.0                 !
 ! A42   A(20,25,27)           121.3826         -DE/DX =    0.0                 !
 ! A43   A(21,25,27)           119.7771         -DE/DX =    0.0                 !
 ! D1    D(2,1,6,4)            -13.7595         -DE/DX =    0.0                 !
 ! D2    D(2,1,6,10)           174.4326         -DE/DX =    0.0                 !
 ! D3    D(3,1,6,4)            106.4089         -DE/DX =    0.0                 !
 ! D4    D(3,1,6,10)           -65.399          -DE/DX =    0.0                 !
 ! D5    D(7,1,6,4)           -132.9757         -DE/DX =    0.0                 !
 ! D6    D(7,1,6,10)            55.2164         -DE/DX =    0.0                 !
 ! D7    D(5,4,6,1)            -63.8638         -DE/DX =    0.0                 !
 ! D8    D(5,4,6,10)           107.8604         -DE/DX =    0.0                 !
 ! D9    D(8,4,6,1)            176.1699         -DE/DX =    0.0                 !
 ! D10   D(8,4,6,10)           -12.1059         -DE/DX =    0.0                 !
 ! D11   D(9,4,6,1)             56.8657         -DE/DX =    0.0                 !
 ! D12   D(9,4,6,10)          -131.4102         -DE/DX =    0.0                 !
 ! D13   D(1,6,10,11)          178.8242         -DE/DX =    0.0                 !
 ! D14   D(1,6,10,12)           -1.6089         -DE/DX =    0.0                 !
 ! D15   D(4,6,10,11)            7.286          -DE/DX =    0.0                 !
 ! D16   D(4,6,10,12)         -173.1471         -DE/DX =    0.0                 !
 ! D17   D(6,10,12,13)        -178.7551         -DE/DX =    0.0                 !
 ! D18   D(6,10,12,14)           1.8809         -DE/DX =    0.0                 !
 ! D19   D(11,10,12,13)          0.8049         -DE/DX =    0.0                 !
 ! D20   D(11,10,12,14)       -178.5591         -DE/DX =    0.0                 !
 ! D21   D(10,12,13,15)          0.75           -DE/DX =    0.0                 !
 ! D22   D(10,12,13,16)       -179.0677         -DE/DX =    0.0                 !
 ! D23   D(14,12,13,15)       -179.8835         -DE/DX =    0.0                 !
 ! D24   D(14,12,13,16)          0.2989         -DE/DX =    0.0                 !
 ! D25   D(12,13,16,17)        179.5174         -DE/DX =    0.0                 !
 ! D26   D(12,13,16,18)         -0.5155         -DE/DX =    0.0                 !
 ! D27   D(15,13,16,17)         -0.3042         -DE/DX =    0.0                 !
 ! D28   D(15,13,16,18)        179.6629         -DE/DX =    0.0                 !
 ! D29   D(13,16,17,19)          0.0283         -DE/DX =    0.0                 !
 ! D30   D(13,16,17,20)       -179.9779         -DE/DX =    0.0                 !
 ! D31   D(18,16,17,19)       -179.9401         -DE/DX =    0.0                 !
 ! D32   D(18,16,17,20)          0.0537         -DE/DX =    0.0                 !
 ! D33   D(13,16,18,21)        179.9989         -DE/DX =    0.0                 !
 ! D34   D(13,16,18,22)         -0.0199         -DE/DX =    0.0                 !
 ! D35   D(17,16,18,21)         -0.0338         -DE/DX =    0.0                 !
 ! D36   D(17,16,18,22)        179.9475         -DE/DX =    0.0                 !
 ! D37   D(16,17,19,23)          0.1598         -DE/DX =    0.0                 !
 ! D38   D(20,17,19,23)       -179.8341         -DE/DX =    0.0                 !
 ! D39   D(16,17,20,24)        179.9896         -DE/DX =    0.0                 !
 ! D40   D(16,17,20,25)         -0.0382         -DE/DX =    0.0                 !
 ! D41   D(19,17,20,24)         -0.0163         -DE/DX =    0.0                 !
 ! D42   D(19,17,20,25)        179.9559         -DE/DX =    0.0                 !
 ! D43   D(16,18,21,25)         -0.0027         -DE/DX =    0.0                 !
 ! D44   D(16,18,21,26)        179.9917         -DE/DX =    0.0                 !
 ! D45   D(22,18,21,25)       -179.9846         -DE/DX =    0.0                 !
 ! D46   D(22,18,21,26)          0.0098         -DE/DX =    0.0                 !
 ! D47   D(17,20,25,21)          0.0015         -DE/DX =    0.0                 !
 ! D48   D(17,20,25,27)        179.9988         -DE/DX =    0.0                 !
 ! D49   D(24,20,25,21)        179.9728         -DE/DX =    0.0                 !
 ! D50   D(24,20,25,27)         -0.0299         -DE/DX =    0.0                 !
 ! D51   D(18,21,25,20)          0.0194         -DE/DX =    0.0                 !
 ! D52   D(18,21,25,27)       -179.978          -DE/DX =    0.0                 !
 ! D53   D(26,21,25,20)       -179.975          -DE/DX =    0.0                 !
 ! D54   D(26,21,25,27)          0.0276         -DE/DX =    0.0                 !
 --------------------------------------------------------------------------------
 GradGradGradGradGradGradGradGradGradGradGradGradGradGradGradGradGradGrad

                          Input orientation:                          
 ---------------------------------------------------------------------
 Center     Atomic      Atomic             Coordinates (Angstroms)
 Number     Number       Type             X           Y           Z
 ---------------------------------------------------------------------
      1          6           0       -3.749750    2.247726   -0.047736
      2          1           0       -4.760931    2.635391   -0.169009
      3          1           0       -3.334632    2.635260    0.890158
      4          6           0       -5.074970    0.151588    0.105047
      5          1           0       -5.516667    0.372220    1.083230
      6          7           0       -3.786746    0.799696   -0.049391
      7          1           0       -3.137169    2.613628   -0.876866
      8          1           0       -4.952352   -0.927555    0.016365
      9          1           0       -5.766204    0.485743   -0.673708
     10          6           0       -2.646157    0.094478   -0.025277
     11          1           0       -2.762426   -0.985216   -0.008314
     12          6           0       -1.376867    0.588805   -0.028241
     13          6           0       -0.277024   -0.353117   -0.026637
     14          1           0       -1.192461    1.651838   -0.021437
[...]
 Alpha virt. eigenvalues --    0.08227   0.08449   0.08476   0.10249   0.11122
 Alpha virt. eigenvalues --    0.11661   0.11933   0.12685   0.12941   0.13829
 Alpha virt. eigenvalues --    0.14392   0.14588   0.14870   0.15438   0.15854
 Alpha virt. eigenvalues --    0.15981   0.16503   0.16825   0.16846   0.17392
 Alpha virt. eigenvalues --    0.17710   0.17918   0.18576   0.19087   0.19284
 Alpha virt. eigenvalues --    0.19716   0.20203   0.20438   0.20855   0.21314
 Alpha virt. eigenvalues --    0.21689   0.21902   0.21983   0.22816   0.23166
 Alpha virt. eigenvalues --    0.23641   0.24002   0.24631   0.25314   0.25901
 Alpha virt. eigenvalues --    0.26156   0.26539   0.27197   0.27448   0.27819
 Alpha virt. eigenvalues --    0.28030   0.28531   0.28944   0.29520   0.30365
 Alpha virt. eigenvalues --    0.30615   0.31103   0.32122   0.32244   0.33018
 Alpha virt. eigenvalues --    0.33276   0.34270   0.34854   0.35188   0.35574
 Alpha virt. eigenvalues --    0.36590   0.36993   0.37085   0.38113   0.38621
 Alpha virt. eigenvalues --    0.38679   0.39309   0.39576   0.39842   0.40149
 Alpha virt. eigenvalues --    0.41157   0.42389   0.43012   0.43075   0.43314
 Alpha virt. eigenvalues --    0.43942   0.45255   0.45929   0.47082   0.47724
 Alpha virt. eigenvalues --    0.48818   0.49371   0.50601   0.51221   0.51516
 Alpha virt. eigenvalues --    0.52106   0.53425   0.55450   0.56092   0.57502
 Alpha virt. eigenvalues --    0.58646   0.60650   0.61429   0.62193   0.62474
 Alpha virt. eigenvalues --    0.63261   0.63521   0.65561   0.65710   0.65979
 Alpha virt. eigenvalues --    0.66865   0.67104   0.68875   0.69431   0.69841
 Alpha virt. eigenvalues --    0.70081   0.70474   0.70664   0.71685   0.71995
 Alpha virt. eigenvalues --    0.73359   0.73818   0.74532   0.76090   0.76328
 Alpha virt. eigenvalues --    0.77822   0.78190   0.79440   0.79528   0.80690
 Alpha virt. eigenvalues --    0.82027   0.83380   0.85376   0.86665   0.87630
 Alpha virt. eigenvalues --    0.87787   0.89161   0.92644   0.93796   0.94347
 Alpha virt. eigenvalues --    0.94739   0.95046   0.96924   0.98262   0.99014
 Alpha virt. eigenvalues --    0.99678   1.01688   1.02024   1.03008   1.04458
 Alpha virt. eigenvalues --    1.05204   1.05964   1.07572   1.07689   1.10753
 Alpha virt. eigenvalues --    1.11836   1.12724   1.13810   1.14655   1.15472
 Alpha virt. eigenvalues --    1.16776   1.17827   1.18840   1.19772   1.20076
 Alpha virt. eigenvalues --    1.21600   1.24110   1.25106   1.27998   1.31814
 Alpha virt. eigenvalues --    1.32638   1.33116   1.34240   1.36529   1.38028
 Alpha virt. eigenvalues --    1.38514   1.42450   1.45149   1.46527   1.50329
 Alpha virt. eigenvalues --    1.51291   1.52049   1.52272   1.53206   1.54451
 Alpha virt. eigenvalues --    1.55505   1.57488   1.58566   1.59405   1.60472
 Alpha virt. eigenvalues --    1.61469   1.62606   1.63915   1.64833   1.65561
 Alpha virt. eigenvalues --    1.65595   1.67545   1.68940   1.69096   1.70209
 Alpha virt. eigenvalues --    1.71651   1.72707   1.73483   1.76002   1.76601
 Alpha virt. eigenvalues --    1.77221   1.79133   1.80312   1.81657   1.82328
 Alpha virt. eigenvalues --    1.83101   1.84557   1.86518   1.86762   1.89753
 Alpha virt. eigenvalues --    1.92838   1.94455   1.96095   1.96240   1.98931
 Alpha virt. eigenvalues --    2.00271   2.02715   2.03906   2.04066   2.04385
 Alpha virt. eigenvalues --    2.06613   2.06879   2.08023   2.09020   2.11811
 Alpha virt. eigenvalues --    2.13109   2.13650   2.15659   2.18495   2.18885
 Alpha virt. eigenvalues --    2.20878   2.21405   2.23961   2.24155   2.26149
 Alpha virt. eigenvalues --    2.28566   2.31029   2.31740   2.36137   2.40377
 Alpha virt. eigenvalues --    2.41446   2.43281   2.46650   2.47565   2.50597
 Alpha virt. eigenvalues --    2.51030   2.52374   2.54883   2.56042   2.57513
 Alpha virt. eigenvalues --    2.58746   2.61885   2.63741   2.66201   2.69583
 Alpha virt. eigenvalues --    2.70709   2.71152   2.73525   2.74007   2.75633
 Alpha virt. eigenvalues --    2.76912   2.78594   2.79640   2.81565   2.81879
 Alpha virt. eigenvalues --    2.83587   2.84596   2.84964   2.86945   2.87646
 Alpha virt. eigenvalues --    2.89109   2.90511   2.93943   2.94387   2.95563
 Alpha virt. eigenvalues --    2.96105   2.98693   3.02307   3.03564   3.07979
 Alpha virt. eigenvalues --    3.10246   3.12969   3.16522   3.18504   3.20398
 Alpha virt. eigenvalues --    3.22262   3.23751   3.24802   3.26918   3.30785
 Alpha virt. eigenvalues --    3.31163   3.32929   3.38345   3.42974   3.46954
 Alpha virt. eigenvalues --    3.51511   3.56946   3.61099   3.62724   3.66784
 Alpha virt. eigenvalues --    3.68790   3.71542   3.75127   3.80022   3.80717
 Alpha virt. eigenvalues --    3.83120   3.83311   3.84820   3.88615   3.89338
 Alpha virt. eigenvalues --    3.92739   3.94459   3.96707   4.03967   4.08449
 Alpha virt. eigenvalues --    4.08581   4.13217   4.17867   4.22676   4.28833
 Alpha virt. eigenvalues --    4.29754   4.39782   4.64479   4.95543   4.97707
 Alpha virt. eigenvalues --    4.98282   5.14076   5.17682   5.18492   5.43504
 Alpha virt. eigenvalues --    5.62573   5.90197   5.94187   6.45026   6.59132
 Alpha virt. eigenvalues --    6.88780  23.70880  23.94254  24.02463  24.03407
 Alpha virt. eigenvalues --   24.04535  24.06827  24.09362  24.15839  24.24236
 Alpha virt. eigenvalues --   24.29645  24.32845  35.70191  50.14065  50.19789
 Alpha virt. eigenvalues --   66.96490
          Condensed to atoms (all electrons):
               1          2          3          4          5          6
     1  C    5.244840   0.386324   0.416696  -0.071415   0.013442   0.243815
     2  H    0.386324   0.488727  -0.019338   0.005602  -0.006578  -0.048388
     3  H    0.416696  -0.019338   0.524091  -0.007171   0.000595  -0.054173
     4  C   -0.071415   0.005602  -0.007171   5.179111   0.395636   0.271529
     5  H    0.013442  -0.006578   0.000595   0.395636   0.559870  -0.049173
     6  N    0.243815  -0.048388  -0.054173   0.271529  -0.049173   6.852779
     7  H    0.418321  -0.021249  -0.051521   0.009235   0.001896  -0.036130
     8  H   -0.002399   0.003541  -0.000635   0.411659  -0.029899  -0.093378
     9  H   -0.013588  -0.003300   0.003168   0.411379  -0.064330  -0.049348
    10  C    0.166119   0.015422  -0.007161  -0.063852  -0.033389   0.183330
    11  H    0.005970  -0.001328  -0.002195  -0.036663   0.004389  -0.065950
    12  C    0.143468   0.030578  -0.001167  -0.059230   0.014337  -0.245310
    13  C   -0.292247  -0.016808   0.014486  -0.114643   0.003390   0.005497
    14  H    0.011922   0.001360  -0.015110  -0.002882   0.000455  -0.006757
    15  O   -0.000762   0.000105   0.000205   0.000713  -0.000099   0.003929
    16  C   -0.191851  -0.003843  -0.000554   0.000041  -0.000861  -0.004137
    17  C   -0.022385   0.000881  -0.001774  -0.004480  -0.000358   0.006647
    18  C   -0.006778  -0.004680   0.006565  -0.013161   0.000530  -0.030492
    19  O   -0.000092  -0.000007   0.000048   0.000268   0.000008  -0.000170
    20  C    0.006461   0.000336  -0.000789  -0.000490   0.000020  -0.000360
    21  C   -0.011657  -0.000698   0.000704   0.001850  -0.000069   0.004478
    22  H    0.004505   0.000057   0.001858  -0.002796   0.000009  -0.014815
    23  H   -0.000938  -0.000082   0.000086  -0.000145   0.000006  -0.000247
    24  H    0.000104   0.000004  -0.000010   0.000008   0.000000  -0.000032
    25  C   -0.011189  -0.000446  -0.000176  -0.000193  -0.000017   0.003379
    26  F   -0.000200  -0.000012  -0.000062  -0.000001   0.000000   0.000006
    27  H   -0.000207  -0.000009   0.000008   0.000005   0.000000   0.000031
               7          8          9         10         11         12
     1  C    0.418321  -0.002399  -0.013588   0.166119   0.005970   0.143468
     2  H   -0.021249   0.003541  -0.003300   0.015422  -0.001328   0.030578
     3  H   -0.051521  -0.000635   0.003168  -0.007161  -0.002195  -0.001167
     4  C    0.009235   0.411659   0.411379  -0.063852  -0.036663  -0.059230
     5  H    0.001896  -0.029899  -0.064330  -0.033389   0.004389   0.014337
     6  N   -0.036130  -0.093378  -0.049348   0.183330  -0.065950  -0.245310
     7  H    0.532817  -0.003189  -0.001465   0.028012   0.003093  -0.036156
     8  H   -0.003189   0.535004  -0.021426   0.056258  -0.008392   0.002889
     9  H   -0.001465  -0.021426   0.559442  -0.004653   0.000527   0.006767
    10  C    0.028012   0.056258  -0.004653  11.817388   0.304513   3.271337
    11  H    0.003093  -0.008392   0.000527   0.304513   0.465870   0.055390
    12  C   -0.036156   0.002889   0.006767   3.271337   0.055390  12.283758
    13  C   -0.026592   0.004207   0.000904  -3.936870   0.107744   0.954982
    14  H    0.006175  -0.001543   0.000597   0.132836  -0.002226   0.553714
    15  O    0.000681   0.000135   0.000073   0.009979   0.012020  -0.224845
    16  C   -0.007860   0.005732   0.000890  -2.857417  -0.058884  -4.310886
    17  C   -0.001874   0.003837  -0.000263  -1.671481  -0.066097  -3.419093
    18  C    0.001169  -0.004302   0.000514  -1.569010   0.053013  -1.520167
    19  O    0.000034  -0.000104   0.000002   0.005456   0.000245  -0.039324
    20  C   -0.000726   0.000106  -0.000013  -0.134753  -0.002903   0.118962
    21  C    0.002216  -0.000037  -0.000005   0.194903  -0.000401  -0.321679
    22  H   -0.002097   0.000104  -0.000019  -0.160509   0.003978  -0.092271
    23  H   -0.000009   0.000012   0.000033  -0.017657   0.001053   0.001183
    24  H   -0.000014   0.000002   0.000000   0.001273  -0.000113   0.010456
    25  C   -0.000097   0.000092   0.000009  -0.220357  -0.004460  -0.797534
    26  F   -0.000085   0.000000   0.000000  -0.001481  -0.000056   0.003377
    27  H    0.000010   0.000001   0.000000  -0.002363  -0.000059  -0.016291
              13         14         15         16         17         18
     1  C   -0.292247   0.011922  -0.000762  -0.191851  -0.022385  -0.006778
     2  H   -0.016808   0.001360   0.000105  -0.003843   0.000881  -0.004680
     3  H    0.014486  -0.015110   0.000205  -0.000554  -0.001774   0.006565
     4  C   -0.114643  -0.002882   0.000713   0.000041  -0.004480  -0.013161
     5  H    0.003390   0.000455  -0.000099  -0.000861  -0.000358   0.000530
     6  N    0.005497  -0.006757   0.003929  -0.004137   0.006647  -0.030492
     7  H   -0.026592   0.006175   0.000681  -0.007860  -0.001874   0.001169
     8  H    0.004207  -0.001543   0.000135   0.005732   0.003837  -0.004302
     9  H    0.000904   0.000597   0.000073   0.000890  -0.000263   0.000514
    10  C   -3.936870   0.132836   0.009979  -2.857417  -1.671481  -1.569010
    11  H    0.107744  -0.002226   0.012020  -0.058884  -0.066097   0.053013
    12  C    0.954982   0.553714  -0.224845  -4.310886  -3.419093  -1.520167
    13  C   13.579511  -0.026872   0.906077   1.617926  -4.133960  -0.163246
    14  H   -0.026872   0.875587  -0.020102   0.125083   0.030884  -0.699758
    15  O    0.906077  -0.020102   8.136438  -0.160219  -0.196837  -0.149593
    16  C    1.617926   0.125083  -0.160219  18.944996   1.419546  -6.967673
    17  C   -4.133960   0.030884  -0.196837   1.419546  16.107665  -4.149043
    18  C   -0.163246  -0.699758  -0.149593  -6.967673  -4.149043  22.093655
    19  O   -0.064679  -0.002048  -0.000954   0.092599   0.344716   0.006214
    20  C   -0.600408  -0.008097  -0.034851  -2.815962   0.733952   1.179737
    21  C   -0.253938  -0.038801   0.006868  -1.360608   0.390624   0.973533
    22  H   -0.039032  -0.173086   0.006162  -0.540786   0.010298   1.582020
    23  H    0.023851  -0.004746   0.071614  -0.152002   0.002467   0.067883
    24  H    0.015888  -0.000777   0.001317  -0.093461  -0.127161   0.059935
    25  C   -1.064531   0.144480  -0.036679   1.229353   0.574771  -2.704555
    26  F    0.011248   0.017933  -0.000003   0.123480   0.011868  -0.163841
    27  H   -0.014652   0.002034  -0.000344   0.122747   0.059676  -0.175265
              19         20         21         22         23         24
     1  C   -0.000092   0.006461  -0.011657   0.004505  -0.000938   0.000104
     2  H   -0.000007   0.000336  -0.000698   0.000057  -0.000082   0.000004
     3  H    0.000048  -0.000789   0.000704   0.001858   0.000086  -0.000010
     4  C    0.000268  -0.000490   0.001850  -0.002796  -0.000145   0.000008
     5  H    0.000008   0.000020  -0.000069   0.000009   0.000006   0.000000
     6  N   -0.000170  -0.000360   0.004478  -0.014815  -0.000247  -0.000032
     7  H    0.000034  -0.000726   0.002216  -0.002097  -0.000009  -0.000014
     8  H   -0.000104   0.000106  -0.000037   0.000104   0.000012   0.000002
     9  H    0.000002  -0.000013  -0.000005  -0.000019   0.000033   0.000000
    10  C    0.005456  -0.134753   0.194903  -0.160509  -0.017657   0.001273
    11  H    0.000245  -0.002903  -0.000401   0.003978   0.001053  -0.000113
    12  C   -0.039324   0.118962  -0.321679  -0.092271   0.001183   0.010456
    13  C   -0.064679  -0.600408  -0.253938  -0.039032   0.023851   0.015888
    14  H   -0.002048  -0.008097  -0.038801  -0.173086  -0.004746  -0.000777
    15  O   -0.000954  -0.034851   0.006868   0.006162   0.071614   0.001317
    16  C    0.092599  -2.815962  -1.360608  -0.540786  -0.152002  -0.093461
    17  C    0.344716   0.733952   0.390624   0.010298   0.002467  -0.127161
    18  C    0.006214   1.179737   0.973533   1.582020   0.067883   0.059935
    19  O    8.089184  -0.388901   0.005614  -0.001002   0.261047  -0.025527
    20  C   -0.388901   7.970081  -0.094826   0.086736   0.068417   0.533671
    21  C    0.005614  -0.094826   8.906864  -0.073978   0.011844   0.042149
    22  H   -0.001002   0.086736  -0.073978   0.727666   0.005166   0.004181
    23  H    0.261047   0.068417   0.011844   0.005166   0.303381   0.001632
    24  H   -0.025527   0.533671   0.042149   0.004181   0.001632   0.462401
    25  C    0.015949  -0.137054  -1.928754  -0.414174  -0.005699  -0.111546
    26  F    0.000152   0.006090   0.352605  -0.078776   0.000146   0.001136
    27  H    0.001122  -0.068805  -0.213974  -0.011409  -0.000471  -0.014822
              25         26         27
     1  C   -0.011189  -0.000200  -0.000207
     2  H   -0.000446  -0.000012  -0.000009
     3  H   -0.000176  -0.000062   0.000008
     4  C   -0.000193  -0.000001   0.000005
     5  H   -0.000017   0.000000   0.000000
     6  N    0.003379   0.000006   0.000031
     7  H   -0.000097  -0.000085   0.000010
     8  H    0.000092   0.000000   0.000001
     9  H    0.000009   0.000000   0.000000
    10  C   -0.220357  -0.001481  -0.002363
    11  H   -0.004460  -0.000056  -0.000059
    12  C   -0.797534   0.003377  -0.016291
    13  C   -1.064531   0.011248  -0.014652
    14  H    0.144480   0.017933   0.002034
    15  O   -0.036679  -0.000003  -0.000344
    16  C    1.229353   0.123480   0.122747
    17  C    0.574771   0.011868   0.059676
    18  C   -2.704555  -0.163841  -0.175265
    19  O    0.015949   0.000152   0.001122
    20  C   -0.137054   0.006090  -0.068805
    21  C   -1.928754   0.352605  -0.213974
    22  H   -0.414174  -0.078776  -0.011409
    23  H   -0.005699   0.000146  -0.000471
    24  H   -0.111546   0.001136  -0.014822
    25  C   10.935231  -0.228726   0.634984
    26  F   -0.228726   9.130487  -0.022380
    27  H    0.634984  -0.022380   0.473141
 Mulliken charges:
               1
     1  C   -0.436277
     2  H    0.193828
     3  H    0.193325
     4  C   -0.309915
     5  H    0.190191
     6  N    0.123440
     7  H    0.185408
     8  H    0.141724
     9  H    0.174103
    10  C    0.494128
    11  H    0.231922
    12  C   -0.367245
    13  C   -0.497234
    14  H    0.099744
    15  O   -0.331025
    16  C    1.844611
    17  C    0.096974
    18  C   -1.703201
    19  O   -0.299849
    20  C   -0.415632
    21  C   -0.594828
    22  H    0.172007
    23  H    0.362175
    24  H    0.239304
    25  C    0.127936
    26  F   -0.162905
    27  H    0.247293
 Sum of Mulliken charges =   0.00000
 Mulliken charges with hydrogens summed into heavy atoms:
               1
     1  C    0.136282
     4  C    0.196103
     6  N    0.123440
    10  C    0.726049
    12  C   -0.267500
    13  C   -0.497234
    15  O   -0.331025
    16  C    1.844611
    17  C    0.096974
    18  C   -1.531194
    19  O    0.062326
    20  C   -0.176328
    21  C   -0.594828
    25  C    0.375229
    26  F   -0.162905
 Electronic spatial extent (au):  <R**2>=           4477.2828
 Charge=              0.0000 electrons
 Dipole moment (field-independent basis, Debye):
    X=              6.0169    Y=              2.5150    Z=             -0.1342  Tot=              6.5228
 Quadrupole moment (field-independent basis, Debye-Ang):
   XX=            -59.0231   YY=            -96.6223   ZZ=            -90.9145
   XY=              4.7950   XZ=             -0.4467   YZ=              0.2852
 Traceless Quadrupole moment (field-independent basis, Debye-Ang):
   XX=             23.1635   YY=            -14.4356   ZZ=             -8.7279
   XY=              4.7950   XZ=             -0.4467   YZ=              0.2852
 Octapole moment (field-independent basis, Debye-Ang**2):
  XXX=             89.3918  YYY=             14.8600  ZZZ=             -0.5399  XYY=             38.9473
  XXY=              2.2531  XXZ=             -2.2502  XZZ=              2.4614  YZZ=              2.6468
  YYZ=              0.4214  XYZ=              0.7605
 Hexadecapole moment (field-independent basis, Debye-Ang**3):
 XXXX=          -3673.0906 YYYY=          -1230.4385 ZZZZ=           -110.5585 XXXY=             12.0963
 XXXZ=             -0.0290 YYYX=             -0.5303 YYYZ=              0.8256 ZZZX=             -3.0077
 ZZZY=             -0.7542 XXYY=           -971.3319 XXZZ=           -802.3025 YYZZ=           -209.7810
 XXYZ=              4.1663 YYXZ=              1.5437 ZZXY=            -12.3595
 N-N= 9.441821318563D+02 E-N=-3.599341386450D+03  KE= 7.286939876200D+02
 1\1\GINC-DN92\FOpt\RwB97XD\6-311++G(d,p)\C11H12F1N1O2\CA12053\19-Oct-2
 016\0\\# wb97xd 6-311++g** opt\\Geom Opt s0\\0,1\C,-3.7497500938,2.247
 7261113,-0.0477358847\H,-4.760930778,2.6353905289,-0.1690087674\H,-3.3
 346317531,2.6352603705,0.8901579266\C,-5.0749702971,0.1515881028,0.105
 0470675\H,-5.5166669207,0.3722196708,1.0832300979\N,-3.7867462409,0.79
 96955378,-0.0493909661\H,-3.1371688843,2.613627651,-0.8768660719\H,-4.
 9523518728,-0.9275553298,0.0163651984\H,-5.7662040188,0.4857430881,-0.
 6737075207\C,-2.6461566408,0.0944784944,-0.0252773018\H,-2.7624261444,
 -0.9852157638,-0.0083141285\C,-1.3768665083,0.5888052813,-0.0282412204
 \C,-0.2770236565,-0.3531171977,-0.026636891\H,-1.1924608029,1.6518379,
 -0.0214372282\O,-0.4844265837,-1.5790718436,-0.0366200967\C,1.12917957
 68,0.136525687,-0.0088074031\C,2.18785849,-0.7998937225,0.0028409679\C
 ,1.4482970133,1.5042867319,-0.003734534\O,1.9897290207,-2.1201741444,-
 0.0019260643\C,3.5148886085,-0.3502429276,0.0201183444\C,2.7585672358,
 1.9087927153,0.0128596968\H,0.6802384979,2.2652000013,-0.0129522062\H,
 1.0126835392,-2.252971295,-0.0170412867\H,4.3031625734,-1.0927042093,0
 .0288906047\C,3.8057799256,0.9977912077,0.0251756413\F,3.041247033,3.2
 308152197,0.017271252\H,4.828705601,1.3541185017,0.0385236208\\Version
 =ES64L-G09RevD.01\State=1-A\HF=-731.3927118\RMSD=7.594e-09\RMSF=1.308e
 -05\Dipole=-2.3672267,0.989547,0.05197\Quadrupole=17.2214843,-10.73224
 42,-6.4892402,-3.5659466,-0.3235074,-0.213685\PG=C01 [X(C11H12F1N1O2)]
 \\@


 ASKING FOR EFFICIENCY AND ADAPTABILITY IN THE SAME PROGRAM IS LIKE
 ASKING FOR A BEAUTIFUL AND MODEST WIFE ...
 WE'LL PROBABLY HAVE TO SETTLE FOR ONE OR THE OTHER.

             -- THE PSYCHOLOGY OF COMPUTER PROGRAMMING
                GERALD M. WEINBERG
 Job cpu time:       0 days  0 hours 50 minutes 46.1 seconds.
 File lengths (MBytes):  RWF=    104 Int=      0 D2E=      0 Chk=     13 Scr=      1
 Normal termination of Gaussian 09 at Wed Oct 19 17:36:28 2016.
