 Entering Gaussian System, Link 0=g09
 Input=5_opt.com
 Output=5_opt.out
 Initial command:
 /share/apps/gaussian/g09_D01/g09/l1.exe "/tmp/4029982.1.chemistry.q/Gau-21803.inp" -scrdir="/tmp/4029982.1.chemistry.q/"
 Entering Link 1 = /share/apps/gaussian/g09_D01/g09/l1.exe PID=     21804.
  
 Copyright (c) 1988,1990,1992,1993,1995,1998,2003,2009,2013,
            Gaussian, Inc.  All Rights Reserved.
  
 This is part of the Gaussian(R) 09 program.  It is based on
 the Gaussian(R) 03 system (copyright 2003, Gaussian, Inc.),
 the Gaussian(R) 98 system (copyright 1998, Gaussian, Inc.),
 the Gaussian(R) 94 system (copyright 1995, Gaussian, Inc.),
 the Gaussian 92(TM) system (copyright 1992, Gaussian, Inc.),
 the Gaussian 90(TM) system (copyright 1990, Gaussian, Inc.),
 the Gaussian 88(TM) system (copyright 1988, Gaussian, Inc.),
 the Gaussian 86(TM) system (copyright 1986, Carnegie Mellon
 University), and the Gaussian 82(TM) system (copyright 1983,
 Carnegie Mellon University). Gaussian is a federally registered
 trademark of Gaussian, Inc.
  
 This software contains proprietary and confidential information,
 including trade secrets, belonging to Gaussian, Inc.
  
 This software is provided under written license and may be
 used, copied, transmitted, or stored only in accord with that
 written license.
  
 The following legend is applicable only to US Government
 contracts under FAR:
  
                    RESTRICTED RIGHTS LEGEND
  
 Use, reproduction and disclosure by the US Government is
 subject to restrictions as set forth in subparagraphs (a)
 and (c) of the Commercial Computer Software - Restricted
 Rights clause in FAR 52.227-19.
  
 Gaussian, Inc.
 340 Quinnipiac St., Bldg. 40, Wallingford CT 06492
  
  
 ---------------------------------------------------------------
 Warning -- This program may not be used in any manner that
 competes with the business of Gaussian, Inc. or will provide
 assistance to any competitor of Gaussian, Inc.  The licensee
 of this program is prohibited from giving any competitor of
 Gaussian, Inc. access to this program.  By using this program,
 the user acknowledges that Gaussian, Inc. is engaged in the
 business of creating and licensing software in the field of
 computational chemistry and represents and warrants to the
 licensee that it is not a competitor of Gaussian, Inc. and that
 it will not use this program in any manner prohibited above.
 ---------------------------------------------------------------
  

 Cite this work as:
 Gaussian 09, Revision D.01,
 M. J. Frisch, G. W. Trucks, H. B. Schlegel, G. E. Scuseria, 
 M. A. Robb, J. R. Cheeseman, G. Scalmani, V. Barone, B. Mennucci, 
 G. A. Petersson, H. Nakatsuji, M. Caricato, X. Li, H. P. Hratchian, 
 A. F. Izmaylov, J. Bloino, G. Zheng, J. L. Sonnenberg, M. Hada, 
 M. Ehara, K. Toyota, R. Fukuda, J. Hasegawa, M. Ishida, T. Nakajima, 
 Y. Honda, O. Kitao, H. Nakai, T. Vreven, J. A. Montgomery, Jr., 
 J. E. Peralta, F. Ogliaro, M. Bearpark, J. J. Heyd, E. Brothers, 
 K. N. Kudin, V. N. Staroverov, T. Keith, R. Kobayashi, J. Normand, 
 K. Raghavachari, A. Rendell, J. C. Burant, S. S. Iyengar, J. Tomasi, 
 M. Cossi, N. Rega, J. M. Millam, M. Klene, J. E. Knox, J. B. Cross, 
 V. Bakken, C. Adamo, J. Jaramillo, R. Gomperts, R. E. Stratmann, 
 O. Yazyev, A. J. Austin, R. Cammi, C. Pomelli, J. W. Ochterski, 
 R. L. Martin, K. Morokuma, V. G. Zakrzewski, G. A. Voth, 
 P. Salvador, J. J. Dannenberg, S. Dapprich, A. D. Daniels, 
 O. Farkas, J. B. Foresman, J. V. Ortiz, J. Cioslowski, 
 and D. J. Fox, Gaussian, Inc., Wallingford CT, 2013.
 
 ******************************************
 Gaussian 09:  ES64L-G09RevD.01 24-Apr-2013
                18-Jul-2017 
 ******************************************
 %chk=5_opt.chk
 %mem=14GB
 %nproc=2
 Will use up to    2 processors via shared memory.
 ----------------------------------
 # wb97xd 6-311++g** td=(nstates=5)
 ----------------------------------
 1/38=1/1;
 2/12=2,17=6,18=5,40=1/2;
 3/5=4,6=6,7=1111,11=9,16=1,25=1,30=1,74=-58/1,2,8,3;
 4//1;
 5/5=2,38=5/2;
 8/6=1,10=2,108=5/1;
 9/41=5,42=1,70=2/14;
 6/7=2,8=2,9=2,10=2/1;
 99/5=1,9=1/99;
 ---
 exc
 ---
 Symbolic Z-matrix:
 Charge =  0 Multiplicity = 1
 C                    -0.0607    0.34566   8.5644 
 H                     0.88016   0.82169   8.83955 
 H                    -0.84439   1.11125   8.52268 
 C                     1.2762   -0.01305   6.50273 
 H                     1.30325   1.04581   6.22195 
 N                     0.09513  -0.31779   7.28637 
 H                    -0.32385  -0.37883   9.34085 
 H                     1.27454  -0.61069   5.59149 
 H                     2.18255  -0.24734   7.06879 
 C                    -0.90113  -1.0657    6.78686 
 H                    -0.71316  -1.51353   5.81528 
 C                    -2.10357  -1.32233   7.37085 
 C                    -3.04207  -2.17192   6.66512 
 H                    -2.36706  -0.8877    8.32266 
 O                    -2.76096  -2.64555   5.54988 
 C                    -4.36909  -2.47572   7.26372 
 C                    -5.31432  -3.20937   6.51324 
 C                    -4.72447  -2.06245   8.55768 
 O                    -5.06755  -3.66888   5.28301 
 C                    -6.57653  -3.47263   7.05947 
 C                    -5.96627  -2.33587   9.08927 
 H                    -4.02986  -1.51319   9.17937 
 H                    -4.13894  -3.41196   5.07446 
 H                    -7.28858  -4.02096   6.45452 
 C                    -6.90335  -3.03773   8.32642 
 H                    -7.89186  -3.23205   8.72767 
 O                    -6.26672  -1.86091   10.344 
 C                    -6.55135  -2.85855   11.30656 
 H                    -7.45406  -3.4263    11.05382 
 H                    -5.70998  -3.55446   11.40697 
 H                    -6.71244  -2.34317   12.25325 
 
                          Input orientation:                          
 ---------------------------------------------------------------------
 Center     Atomic      Atomic             Coordinates (Angstroms)
 Number     Number       Type             X           Y           Z
 ---------------------------------------------------------------------
      1          6           0       -0.060702    0.345663    8.564402
      2          1           0        0.880164    0.821688    8.839551
      3          1           0       -0.844388    1.111252    8.522682
      4          6           0        1.276203   -0.013048    6.502729
      5          1           0        1.303248    1.045812    6.221950
      6          7           0        0.095132   -0.317789    7.286374
      7          1           0       -0.323853   -0.378829    9.340855
      8          1           0        1.274544   -0.610692    5.591489
      9          1           0        2.182551   -0.247338    7.068790
     10          6           0       -0.901131   -1.065699    6.786855
     11          1           0       -0.713160   -1.513526    5.815280
     12          6           0       -2.103565   -1.322327    7.370854
     13          6           0       -3.042069   -2.171915    6.665122
     14          1           0       -2.367063   -0.887699    8.322662
     15          8           0       -2.760962   -2.645546    5.549876
     16          6           0       -4.369086   -2.475719    7.263723
     17          6           0       -5.314324   -3.209368    6.513238
     18          6           0       -4.724468   -2.062452    8.557680
     19          8           0       -5.067546   -3.668883    5.283011
     20          6           0       -6.576530   -3.472634    7.059469
     21          6           0       -5.966268   -2.335868    9.089272
     22          1           0       -4.029863   -1.513192    9.179372
     23          1           0       -4.138939   -3.411960    5.074462
     24          1           0       -7.288580   -4.020957    6.454516
     25          6           0       -6.903347   -3.037726    8.326416
     26          1           0       -7.891858   -3.232053    8.727670
     27          8           0       -6.266718   -1.860906   10.343997
     28          6           0       -6.551354   -2.858545   11.306560
     29          1           0       -7.454064   -3.426301   11.053821
     30          1           0       -5.709982   -3.554455   11.406967
     31          1           0       -6.712439   -2.343172   12.253253
 ---------------------------------------------------------------------
                    Distance matrix (angstroms):
                    1          2          3          4          5
     1  C    0.000000
     2  H    1.089741   0.000000
     3  H    1.096372   1.777170   0.000000
     4  C    2.483241   2.512841   3.137063   0.000000
     5  H    2.799580   2.661027   3.148014   1.095789   0.000000
     6  N    1.448381   2.080154   2.110288   1.449791   2.109965
     7  H    1.094082   1.772626   1.777837   3.278557   3.795343
     8  H    3.396426   3.571716   4.005853   1.089743   1.772656
     9  H    2.760560   2.444304   3.622420   1.093976   1.778356
    10  C    2.420318   3.308897   2.784857   2.435074   3.104333
    11  H    3.382301   4.139821   3.773156   2.584876   3.283518
    12  C    2.894829   3.956831   2.972296   3.727021   4.305164
    13  C    4.339817   5.392004   4.365721   4.830585   5.425122
    14  H    2.626580   3.705895   2.520784   4.165400   4.650015
    15  O    5.032505   6.008450   5.159880   4.912909   5.531330
    16  C    5.311698   6.396151   5.184094   6.205896   6.757355
    17  C    6.666788   7.748085   6.533449   7.324726   7.872971
    18  C    5.248788   6.309486   5.012848   6.665653   7.172886
    19  O    7.207815   8.257691   7.154035   7.422668   7.981038
    20  C    7.700664   8.787046   7.484013   8.599076   9.121880
    21  C    6.507058   7.543617   6.199783   8.033622   8.514879
    22  H    4.425807   5.447523   4.179258   6.129371   6.613389
    23  H    6.552208   7.569086   6.572955   6.551054   7.127823
    24  H    8.704092   9.791220   8.493791   9.456277   9.977261
    25  C    7.637130   8.702955   7.345987   8.909520   9.404906
    26  H    8.611255   9.664042   8.280891   9.968234  10.446470
    27  O    6.822796   7.780591   6.446129   8.664039   9.096410
    28  C    7.740474   8.652035   7.488573   9.614796  10.138641
    29  H    8.665259   9.612895   8.407370  10.420187  10.956153
    30  H    7.430038   8.316987   7.332253   9.241206   9.860642
    31  H    8.067407   8.906027   7.764292  10.115157  10.588346
                    6          7          8          9         10
     6  N    0.000000
     7  H    2.097657   0.000000
     8  H    2.085531   4.082448   0.000000
     9  H    2.099911   3.385503   1.771700   0.000000
    10  C    1.342173   2.707020   2.523785   3.202858   0.000000
    11  H    2.060883   3.724081   2.194575   3.399950   1.086204
    12  C    2.418781   2.817529   3.883836   4.429180   1.361161
    13  C    3.696724   4.214665   4.714155   5.582437   2.412913
    14  H    2.731500   2.338883   4.560410   4.762483   2.130574
    15  O    4.073224   5.044703   4.519698   5.700598   2.735874
    16  C    4.958469   5.007528   6.174565   6.922978   3.773893
    17  C    6.182328   6.396262   7.142543   8.079938   4.913904
    18  C    5.280967   4.776334   6.847922   7.295090   4.329809
    19  O    6.472754   7.056428   7.047680   8.213397   5.137814
    20  C    7.383468   7.339777   8.484400   9.334030   6.170722
    21  C    6.638046   5.977470   8.224359   8.651448   5.707019
    22  H    4.693401   3.879093   6.467159   6.682143   3.964007
    23  H    5.691556   6.477413   6.117207   7.345299   4.349785
    24  H    8.302087   8.372782   9.257528  10.213709   7.045815
    25  C    7.580135   7.168582   8.958137   9.587566   6.502748
    26  H    8.623357   8.111201  10.036438  10.637393   7.571665
    27  O    7.225192   6.206488   9.001111   9.204386   6.486535
    28  C    8.172705   6.985324   9.947842  10.052770   7.454331
    29  H    8.991488   7.941111  10.674892  10.901863   8.168254
    30  H    7.820143   6.585120   9.553488   9.594211   7.117892
    31  H    8.666896   7.290729  10.543836  10.506761   8.079898
                   11         12         13         14         15
    11  H    0.000000
    12  C    2.095136   0.000000
    13  C    2.565058   1.449361   0.000000
    14  H    3.068227   1.079014   2.202790   0.000000
    15  O    2.354868   2.345003   1.243833   3.306588   0.000000
    16  C    4.048407   2.544479   1.487143   2.766090   2.356305
    17  C    4.953154   3.821701   2.502503   4.165394   2.786686
    18  C    4.890058   2.970770   2.534605   2.644359   3.638989
    19  O    4.887694   4.318634   2.872926   4.926162   2.537472
    20  C    6.305967   4.972745   3.786792   5.098741   4.185870
    21  C    6.244230   4.347494   3.801884   3.954638   4.785103
    22  H    4.724154   2.649111   2.780487   1.972333   4.008189
    23  H    3.986079   3.712510   2.295873   4.479089   1.646885
    24  H    7.066257   5.916643   4.636396   6.126059   4.817619
    25  C    6.851818   5.185904   4.291736   5.020010   5.002233
    26  H    7.935304   6.244385   5.375728   6.015263   6.063700
    27  O    7.174396   5.144073   4.901960   4.498915   5.990791
    28  C    8.126976   6.134539   5.859137   5.504196   6.895785
    29  H    8.748760   6.827796   6.348217   6.307243   7.275177
    30  H    7.771781   5.854814   5.613757   5.272536   6.620298
    31  H    8.838957   6.791293   6.687911   6.037403   7.787224
                   16         17         18         19         20
    16  C    0.000000
    17  C    1.412425   0.000000
    18  C    1.404069   2.417248   0.000000
    19  O    2.415514   1.336230   3.663575   0.000000
    20  C    2.430714   1.400300   2.768282   2.339092   0.000000
    21  C    2.429646   2.797139   1.378192   4.131858   2.405152
    22  H    2.170539   3.411030   1.081972   4.572244   3.849534
    23  H    2.392149   1.868863   3.781114   0.985806   3.144167
    24  H    3.400885   2.135372   3.851456   2.535621   1.083347
    25  C    2.804933   2.417037   2.398365   3.609825   1.378807
    26  H    3.889101   3.398221   3.380713   4.475850   2.137957
    27  O    3.669753   4.171345   2.368562   5.506394   3.671754
    28  C    4.610139   4.962787   3.395235   6.256315   4.291331
    29  H    4.978508   5.024186   3.942271   6.249525   4.089873
    30  H    4.486440   4.921810   3.363889   6.158624   4.433773
    31  H    5.514008   5.970996   4.205721   7.283368   5.316912
                   21         22         23         24         25
    21  C    0.000000
    22  H    2.105844   0.000000
    23  H    4.540463   4.524103   0.000000
    24  H    3.395581   4.932845   3.492229   0.000000
    25  C    1.397380   3.362833   4.284531   2.149222   0.000000
    26  H    2.154484   4.251297   5.240486   2.480634   1.084399
    27  O    1.374843   2.545737   5.890773   4.564875   2.420916
    28  C    2.351996   3.562698   6.705599   5.043514   3.006204
    29  H    2.694816   4.347263   6.836885   4.640540   2.809452
    30  H    2.631035   3.457128   6.526033   5.218847   3.343789
    31  H    3.250785   4.163391   7.700666   6.064013   3.992355
                   26         27         28         29         30
    26  H    0.000000
    27  O    2.670887   0.000000
    28  C    2.930381   1.415213   0.000000
    29  H    2.374947   2.089043   1.095951   0.000000
    30  H    3.470325   2.075565   1.096485   1.784085   0.000000
    31  H    3.822417   2.019036   1.089856   1.778149   1.785589
                   31
    31  H    0.000000
 Stoichiometry    C12H15NO3
 Framework group  C1[X(C12H15NO3)]
 Deg. of freedom    87
 Full point group                 C1      NOp   1
 Largest Abelian subgroup         C1      NOp   1
 Largest concise Abelian subgroup C1      NOp   1
                         Standard orientation:                         
 ---------------------------------------------------------------------
 Center     Atomic      Atomic             Coordinates (Angstroms)
 Number     Number       Type             X           Y           Z
 ---------------------------------------------------------------------
      1          6           0       -3.781681   -2.076392   -0.193014
      2          1           0       -4.725608   -2.615079   -0.113305
      3          1           0       -3.357384   -2.253595   -1.188304
      4          6           0       -5.387191   -0.195120    0.029780
      5          1           0       -5.857219   -0.355547   -0.946995
      6          7           0       -4.015817   -0.665434    0.035430
      7          1           0       -3.089972   -2.474478    0.555372
      8          1           0       -5.408696    0.871741    0.250879
      9          1           0       -5.974752   -0.718172    0.790025
     10          6           0       -2.983695    0.190631    0.092925
     11          1           0       -3.244177    1.233686    0.247928
     12          6           0       -1.661317   -0.113724   -0.014060
     13          6           0       -0.698215    0.964401    0.089522
     14          1           0       -1.333293   -1.125441   -0.195995
     15          8           0       -1.070269    2.138874    0.260725
     16          6           0        0.756655    0.678525   -0.025465
     17          6           0        1.673419    1.752930   -0.037335
     18          6           0        1.262709   -0.627714   -0.120644
     19          8           0        1.297761    3.030664    0.071239
     20          6           0        3.042227    1.492109   -0.175818
     21          6           0        2.612980   -0.873374   -0.246467
     22          1           0        0.603467   -1.485370   -0.098493
     23          1           0        0.318029    3.021117    0.180084
     24          1           0        3.721131    2.335971   -0.200885
     25          6           0        3.508010    0.199028   -0.285793
     26          1           0        4.569016    0.014379   -0.412656
     27          8           0        3.037768   -2.173782   -0.383175
     28          6           0        3.892959   -2.632834    0.646751
     29          1           0        4.840674   -2.082846    0.668188
     30          1           0        3.407233   -2.542720    1.625643
     31          1           0        4.099029   -3.682452    0.437890
 ---------------------------------------------------------------------
 Rotational constants (GHZ):      0.8228801      0.2621255      0.2017187
 Standard basis: 6-311++G(d,p) (5D, 7F)
 There are   473 symmetry adapted cartesian basis functions of A   symmetry.
 There are   457 symmetry adapted basis functions of A   symmetry.
   457 basis functions,   711 primitive gaussians,   473 cartesian basis functions
    59 alpha electrons       59 beta electrons
       nuclear repulsion energy      1054.6761902246 Hartrees.
 NAtoms=   31 NActive=   31 NUniq=   31 SFac= 1.00D+00 NAtFMM=   60 NAOKFM=F Big=F
 Integral buffers will be    131072 words long.
 Raffenetti 1 integral format.
 Two-electron integral symmetry is turned on.
 Nuclear repulsion after empirical dispersion term =     1054.6583384616 Hartrees.
 One-electron integrals computed using PRISM.
 NBasis=   457 RedAO= T EigKep=  1.40D-06  NBF=   457
 NBsUse=   454 1.00D-06 EigRej=  7.17D-07 NBFU=   454
 ExpMin= 3.60D-02 ExpMax= 8.59D+03 ExpMxC= 1.30D+03 IAcc=3 IRadAn=         5 AccDes= 0.00D+00
 Harris functional with IExCor= 4639 and IRadAn=       5 diagonalized for initial guess.
 HarFok:  IExCor= 4639 AccDes= 0.00D+00 IRadAn=         5 IDoV= 1 UseB2=F ITyADJ=14
 ICtDFT=  3500011 ScaDFX=  1.000000  1.000000  1.000000  1.000000
 FoFCou: FMM=F IPFlag=           0 FMFlag=      100000 FMFlg1=           0
         NFxFlg=           0 DoJE=T BraDBF=F KetDBF=T FulRan=T
         wScrn=  0.000000 ICntrl=     500 IOpCl=  0 I1Cent=   200000004 NGrid=           0
         NMat0=    1 NMatS0=      1 NMatT0=    0 NMatD0=    1 NMtDS0=    0 NMtDT0=    0
 Petite list used in FoFCou.
 Requested convergence on RMS density matrix=1.00D-08 within 128 cycles.
 Requested convergence on MAX density matrix=1.00D-06.
 Requested convergence on             energy=1.00D-06.
 No special actions if energy rises.
 SCF Done:  E(RwB97XD) =  -746.667262082     A.U. after   17 cycles
            NFock= 17  Conv=0.47D-08     -V/T= 2.0039
 DoSCS=F DFT=T ScalE2(SS,OS)=  1.000000  1.000000
 ExpMin= 3.60D-02 ExpMax= 8.59D+03 ExpMxC= 1.30D+03 IAcc=3 IRadAn=         5 AccDes= 0.00D+00
 HarFok:  IExCor=  205 AccDes= 0.00D+00 IRadAn=         5 IDoV=-2 UseB2=F ITyADJ=14
 ICtDFT= 12500011 ScaDFX=  1.000000  1.000000  1.000000  1.000000
 Range of M.O.s used for correlation:    17   454
 NBasis=   457 NAE=    59 NBE=    59 NFC=    16 NFV=     0
 NROrb=    438 NOA=    43 NOB=    43 NVA=   395 NVB=   395

 **** Warning!!: The largest alpha MO coefficient is  0.19430245D+03

 Would need an additional         31034300000 words for in-memory AO integral storage.
 Orbital symmetries:
       Occupied  (A) (A) (A) (A) (A) (A) (A) (A) (A) (A) (A) (A)
                 (A) (A) (A) (A) (A) (A) (A) (A) (A) (A) (A) (A)
                 (A) (A) (A) (A) (A) (A) (A) (A) (A) (A) (A) (A)
                 (A) (A) (A) (A) (A) (A) (A) (A) (A) (A) (A) (A)
                 (A) (A) (A) (A) (A) (A) (A) (A) (A) (A) (A)
       Virtual   (A) (A) (A) (A) (A) (A) (A) (A) (A) (A) (A) (A)
                 (A) (A) (A) (A) (A) (A) (A) (A) (A) (A) (A) (A)
                 (A) (A) (A) (A) (A) (A) (A) (A) (A) (A) (A) (A)
                 (A) (A) (A) (A) (A) (A) (A) (A) (A) (A) (A) (A)
                 (A) (A) (A) (A) (A) (A) (A) (A) (A) (A) (A) (A)
                 (A) (A) (A) (A) (A) (A) (A) (A) (A) (A) (A) (A)
                 (A) (A) (A) (A) (A) (A) (A) (A) (A) (A) (A) (A)
                 (A) (A) (A) (A) (A) (A) (A) (A) (A) (A) (A) (A)
                 (A) (A) (A) (A) (A) (A) (A) (A) (A) (A) (A) (A)
                 (A) (A) (A) (A) (A) (A) (A) (A) (A) (A) (A) (A)
                 (A) (A) (A) (A) (A) (A) (A) (A) (A) (A) (A) (A)
                 (A) (A) (A) (A) (A) (A) (A) (A) (A) (A) (A) (A)
                 (A) (A) (A) (A) (A) (A) (A) (A) (A) (A) (A) (A)
                 (A) (A) (A) (A) (A) (A) (A) (A) (A) (A) (A) (A)
                 (A) (A) (A) (A) (A) (A) (A) (A) (A) (A) (A) (A)
                 (A) (A) (A) (A) (A) (A) (A) (A) (A) (A) (A) (A)
                 (A) (A) (A) (A) (A) (A) (A) (A) (A) (A) (A) (A)
                 (A) (A) (A) (A) (A) (A) (A) (A) (A) (A) (A) (A)
                 (A) (A) (A) (A) (A) (A) (A) (A) (A) (A) (A) (A)
                 (A) (A) (A) (A) (A) (A) (A) (A) (A) (A) (A) (A)
                 (A) (A) (A) (A) (A) (A) (A) (A) (A) (A) (A) (A)
                 (A) (A) (A) (A) (A) (A) (A) (A) (A) (A) (A) (A)
                 (A) (A) (A) (A) (A) (A) (A) (A) (A) (A) (A) (A)
                 (A) (A) (A) (A) (A) (A) (A) (A) (A) (A) (A) (A)
                 (A) (A) (A) (A) (A) (A) (A) (A) (A) (A) (A) (A)
                 (A) (A) (A) (A) (A) (A) (A) (A) (A) (A) (A) (A)
                 (A) (A) (A) (A) (A) (A) (A) (A) (A) (A) (A) (A)
                 (A) (A) (A) (A) (A) (A) (A) (A) (A) (A) (A) (A)
                 (A) (A) (A) (A) (A) (A) (A) (A) (A) (A) (A) (A)
                 (A) (A) (A) (A) (A) (A) (A) (A) (A) (A) (A) (A)
                 (A) (A) (A) (A) (A) (A) (A) (A) (A) (A) (A) (A)
                 (A) (A) (A) (A) (A) (A) (A) (A) (A) (A) (A) (A)
                 (A) (A) (A) (A) (A) (A) (A) (A) (A) (A) (A)
    20 initial guesses have been made.
 Convergence on wavefunction:    0.001000000000000
 Iteration     1 Dimension    20 NMult     0 NNew     20
 CISAX will form    20 AO SS matrices at one time.
 New state      1 was old state      8
 New state      2 was old state      1
 New state      3 was old state      2
 New state      4 was old state      5
 New state      5 was old state     10
 Iteration     2 Dimension    30 NMult    20 NNew     10
 New state      4 was old state      5
 New state      5 was old state      4
 Iteration     3 Dimension    40 NMult    30 NNew     10
 Iteration     4 Dimension    50 NMult    40 NNew     10
 Iteration     5 Dimension    60 NMult    50 NNew     10
 Iteration     6 Dimension    70 NMult    60 NNew     10
 Iteration     7 Dimension    74 NMult    70 NNew      4
 ***********************************************************************
 Excited states from <AA,BB:AA,BB> singles matrix:
 ***********************************************************************
 
 Ground to excited state transition densities written to RWF  633
 Ground to excited state transition electric dipole moments (Au):
       state          X           Y           Z        Dip. S.      Osc.
         1         1.8163      0.6843     -0.0269      3.7677      0.3675
         2         0.2801      0.0770      0.0147      0.0846      0.0088
         3        -1.6423     -0.4310     -0.0762      2.8889      0.3171
         4        -0.1360      0.1663      0.0657      0.0504      0.0065
         5        -0.0180      0.0584     -0.4891      0.2430      0.0326
 Ground to excited state transition velocity dipole moments (Au):
       state          X           Y           Z        Dip. S.      Osc.
         1        -0.2640     -0.1045      0.0046      0.0806      0.3674
         2        -0.0428     -0.0122     -0.0022      0.0020      0.0085
         3         0.2660      0.0677      0.0130      0.0755      0.3056
         4         0.0184     -0.0314     -0.0120      0.0015      0.0050
         5         0.0033     -0.0112      0.0994      0.0100      0.0332
 Ground to excited state transition magnetic dipole moments (Au):
       state          X           Y           Z
         1        -0.0574      0.0158     -0.0928
         2         0.1780     -0.5475     -0.0019
         3        -0.0885      0.0256     -1.0010
         4         0.0361     -0.0315     -0.0857
         5        -0.2510      0.5648      0.1277
 Ground to excited state transition velocity quadrupole moments (Au):
       state          XX          YY          ZZ          XY          XZ          YZ
         1         0.3467     -0.3411      0.0390     -0.1808      0.0592      0.0188
         2         0.1518     -0.0278     -0.0033      0.0288      0.0348     -0.0198
         3        -1.9273      0.1303     -0.0282     -0.7397     -0.0561      0.0038
         4         0.1190     -0.0681     -0.0031      0.3161      0.0142     -0.0111
         5        -0.1162      0.1022     -0.1073      0.0874     -0.6181     -0.2810
 <0|del|b> * <b|rxdel|0> + <0|del|b> * <b|delr+rdel|0>
 Rotatory Strengths (R) in cgs (10**-40 erg-esu-cm/Gauss)
       state          XX          YY          ZZ    R(velocity)    E-M Angle
         1         7.9311     25.6504     29.6868     21.0894       65.28
         2        16.0073    -15.2783     -5.0831     -1.4513       92.13
         3       -36.7847    -55.6541    -57.1687    -49.8692       97.25
         4        -2.3962      9.5792      2.5697      3.2509       44.60
         5        14.1921      3.9085      1.2266      6.4424       85.00
 1/2[<0|r|b>*<b|rxdel|0> + (<0|rxdel|b>*<b|r|0>)*]
 Rotatory Strengths (R) in cgs (10**-40 erg-esu-cm/Gauss)
       state          XX          YY          ZZ     R(length)
         1        73.7684     -7.6410     -1.7673     21.4534
         2       -35.2708     29.8139      0.0201     -1.8123
         3      -102.7846      7.8094    -53.9452    -49.6402
         4         3.4739      3.7051      3.9804      3.7198
         5        -3.1992    -23.3069     44.1789      5.8909
  1/2[<0|del|b>*<b|r|0> + (<0|r|b>*<b|del|0>)*] (Au)
       state          X           Y           Z        Dip. S.   Osc.(frdel)
         1        -0.4795     -0.0715     -0.0001      0.5511      0.3674
         2        -0.0120     -0.0009      0.0000      0.0130      0.0086
         3        -0.4368     -0.0292     -0.0010      0.4670      0.3113
         4        -0.0025     -0.0052     -0.0008      0.0085      0.0057
         5        -0.0001     -0.0007     -0.0486      0.0493      0.0329

 Excitation energies and oscillator strengths:
 
 Excited State   1:      Singlet-A      3.9807 eV  311.46 nm  f=0.3675  <S**2>=0.000
      59 -> 60         0.67532
      59 -> 64        -0.10429
 This state for optimization and/or second-order correction.
 Total Energy, E(TD-HF/TD-KS) =  -746.520973363    
 Copying the excited state density for this state as the 1-particle RhoCI density.
 
 Excited State   2:      Singlet-A      4.2243 eV  293.50 nm  f=0.0088  <S**2>=0.000
      56 -> 60         0.15785
      57 -> 60         0.65309
 
 Excited State   3:      Singlet-A      4.4806 eV  276.72 nm  f=0.3171  <S**2>=0.000
      58 -> 60         0.67297
 
 Excited State   4:      Singlet-A      5.2933 eV  234.23 nm  f=0.0065  <S**2>=0.000
      56 -> 60         0.44179
      57 -> 60        -0.12505
      58 -> 60        -0.11192
      58 -> 64        -0.11718
      58 -> 66        -0.13221
      59 -> 64        -0.23714
      59 -> 66        -0.31409
      59 -> 72        -0.16357
 
 Excited State   5:      Singlet-A      5.4822 eV  226.16 nm  f=0.0326  <S**2>=0.000
      58 -> 61         0.49433
      58 -> 71        -0.14676
      59 -> 61        -0.35250
 SavETr:  write IOETrn=   770 NScale= 10 NData=  16 NLR=1 NState=    5 LETran=     100.

 **********************************************************************

            Population analysis using the SCF density.

 **********************************************************************

 Orbital symmetries:
       Occupied  (A) (A) (A) (A) (A) (A) (A) (A) (A) (A) (A) (A)
                 (A) (A) (A) (A) (A) (A) (A) (A) (A) (A) (A) (A)
                 (A) (A) (A) (A) (A) (A) (A) (A) (A) (A) (A) (A)
                 (A) (A) (A) (A) (A) (A) (A) (A) (A) (A) (A) (A)
                 (A) (A) (A) (A) (A) (A) (A) (A) (A) (A) (A)
       Virtual   (A) (A) (A) (A) (A) (A) (A) (A) (A) (A) (A) (A)
                 (A) (A) (A) (A) (A) (A) (A) (A) (A) (A) (A) (A)
                 (A) (A) (A) (A) (A) (A) (A) (A) (A) (A) (A) (A)
                 (A) (A) (A) (A) (A) (A) (A) (A) (A) (A) (A) (A)
                 (A) (A) (A) (A) (A) (A) (A) (A) (A) (A) (A) (A)
                 (A) (A) (A) (A) (A) (A) (A) (A) (A) (A) (A) (A)
                 (A) (A) (A) (A) (A) (A) (A) (A) (A) (A) (A) (A)
                 (A) (A) (A) (A) (A) (A) (A) (A) (A) (A) (A) (A)
                 (A) (A) (A) (A) (A) (A) (A) (A) (A) (A) (A) (A)
                 (A) (A) (A) (A) (A) (A) (A) (A) (A) (A) (A) (A)
                 (A) (A) (A) (A) (A) (A) (A) (A) (A) (A) (A) (A)
                 (A) (A) (A) (A) (A) (A) (A) (A) (A) (A) (A) (A)
                 (A) (A) (A) (A) (A) (A) (A) (A) (A) (A) (A) (A)
                 (A) (A) (A) (A) (A) (A) (A) (A) (A) (A) (A) (A)
                 (A) (A) (A) (A) (A) (A) (A) (A) (A) (A) (A) (A)
                 (A) (A) (A) (A) (A) (A) (A) (A) (A) (A) (A) (A)
                 (A) (A) (A) (A) (A) (A) (A) (A) (A) (A) (A) (A)
                 (A) (A) (A) (A) (A) (A) (A) (A) (A) (A) (A) (A)
                 (A) (A) (A) (A) (A) (A) (A) (A) (A) (A) (A) (A)
                 (A) (A) (A) (A) (A) (A) (A) (A) (A) (A) (A) (A)
                 (A) (A) (A) (A) (A) (A) (A) (A) (A) (A) (A) (A)
                 (A) (A) (A) (A) (A) (A) (A) (A) (A) (A) (A) (A)
                 (A) (A) (A) (A) (A) (A) (A) (A) (A) (A) (A) (A)
                 (A) (A) (A) (A) (A) (A) (A) (A) (A) (A) (A) (A)
                 (A) (A) (A) (A) (A) (A) (A) (A) (A) (A) (A) (A)
                 (A) (A) (A) (A) (A) (A) (A) (A) (A) (A) (A) (A)
                 (A) (A) (A) (A) (A) (A) (A) (A) (A) (A) (A) (A)
                 (A) (A) (A) (A) (A) (A) (A) (A) (A) (A) (A) (A)
                 (A) (A) (A) (A) (A) (A) (A) (A) (A) (A) (A) (A)
                 (A) (A) (A) (A) (A) (A) (A) (A) (A) (A) (A) (A)
                 (A) (A) (A) (A) (A) (A) (A) (A) (A) (A) (A) (A)
                 (A) (A) (A) (A) (A) (A) (A) (A) (A) (A) (A) (A)
                 (A) (A) (A) (A) (A) (A) (A) (A) (A) (A) (A)
 The electronic state is 1-A.
 Alpha  occ. eigenvalues --  -19.26282 -19.24977 -19.22125 -14.48988 -10.37222
 Alpha  occ. eigenvalues --  -10.34866 -10.34497 -10.33898 -10.33580 -10.33416
 Alpha  occ. eigenvalues --  -10.33016 -10.29321 -10.29311 -10.29064 -10.28190
 Alpha  occ. eigenvalues --  -10.27219  -1.16019  -1.15855  -1.12551  -1.08739
 Alpha  occ. eigenvalues --   -0.95668  -0.89363  -0.86489  -0.85208  -0.84673
 Alpha  occ. eigenvalues --   -0.80099  -0.78286  -0.74187  -0.70288  -0.68079
 Alpha  occ. eigenvalues --   -0.65078  -0.63125  -0.61471  -0.59952  -0.58603
 Alpha  occ. eigenvalues --   -0.58433  -0.57592  -0.55161  -0.54252  -0.52748
 Alpha  occ. eigenvalues --   -0.52001  -0.51703  -0.51545  -0.51147  -0.50455
 Alpha  occ. eigenvalues --   -0.49567  -0.49469  -0.46992  -0.46869  -0.46490
 Alpha  occ. eigenvalues --   -0.44456  -0.42872  -0.41598  -0.40780  -0.36552
 Alpha  occ. eigenvalues --   -0.33686  -0.33643  -0.29659  -0.28068
 Alpha virt. eigenvalues --    0.00254   0.02809   0.04259   0.04792   0.05725
 Alpha virt. eigenvalues --    0.05877   0.06002   0.06189   0.07443   0.07597
 Alpha virt. eigenvalues --    0.07963   0.08232   0.08721   0.08866   0.09243
 Alpha virt. eigenvalues --    0.09899   0.11251   0.11874   0.12262   0.12656
 Alpha virt. eigenvalues --    0.13132   0.13454   0.14179   0.14476   0.14858
 Alpha virt. eigenvalues --    0.15110   0.15148   0.15722   0.15957   0.16306
 Alpha virt. eigenvalues --    0.16811   0.17275   0.17622   0.17716   0.18254
 Alpha virt. eigenvalues --    0.18527   0.18587   0.19142   0.19450   0.19640
 Alpha virt. eigenvalues --    0.20455   0.20629   0.20712   0.21329   0.21641
 Alpha virt. eigenvalues --    0.21861   0.22402   0.22690   0.23120   0.23443
 Alpha virt. eigenvalues --    0.23931   0.24427   0.24889   0.25349   0.25752
 Alpha virt. eigenvalues --    0.26178   0.26378   0.26811   0.27296   0.27558
 Alpha virt. eigenvalues --    0.27762   0.28310   0.28564   0.28841   0.29314
 Alpha virt. eigenvalues --    0.29796   0.31034   0.31097   0.31644   0.32053
 Alpha virt. eigenvalues --    0.32785   0.33052   0.33427   0.33622   0.34325
 Alpha virt. eigenvalues --    0.34928   0.35104   0.35553   0.36003   0.36310
 Alpha virt. eigenvalues --    0.36760   0.37068   0.37707   0.38165   0.38856
 Alpha virt. eigenvalues --    0.39124   0.39662   0.39918   0.40377   0.40728
 Alpha virt. eigenvalues --    0.41146   0.41691   0.42071   0.43103   0.43406
 Alpha virt. eigenvalues --    0.43731   0.44390   0.45605   0.46095   0.46615
 Alpha virt. eigenvalues --    0.47730   0.47988   0.48395   0.50020   0.51027
 Alpha virt. eigenvalues --    0.51543   0.51763   0.52530   0.54174   0.55287
 Alpha virt. eigenvalues --    0.55979   0.56409   0.57915   0.58731   0.61173
 Alpha virt. eigenvalues --    0.62612   0.62875   0.63869   0.64297   0.65196
 Alpha virt. eigenvalues --    0.66083   0.66419   0.67205   0.67383   0.68082
 Alpha virt. eigenvalues --    0.69461   0.70230   0.70563   0.70875   0.71081
 Alpha virt. eigenvalues --    0.71865   0.72419   0.72512   0.72951   0.73754
 Alpha virt. eigenvalues --    0.74279   0.75966   0.76084   0.76575   0.76996
 Alpha virt. eigenvalues --    0.78600   0.79124   0.79566   0.80270   0.80574
 Alpha virt. eigenvalues --    0.81181   0.82729   0.82966   0.84708   0.86261
 Alpha virt. eigenvalues --    0.86343   0.87999   0.88432   0.89649   0.93094
 Alpha virt. eigenvalues --    0.94355   0.94766   0.95968   0.96165   0.97539
 Alpha virt. eigenvalues --    0.99130   0.99525   1.00087   1.00515   1.02007
 Alpha virt. eigenvalues --    1.02841   1.04440   1.04664   1.05206   1.07137
 Alpha virt. eigenvalues --    1.09004   1.10246   1.11584   1.11738   1.12726
 Alpha virt. eigenvalues --    1.12907   1.14622   1.15391   1.16800   1.17134
 Alpha virt. eigenvalues --    1.18281   1.18984   1.19531   1.20272   1.22020
 Alpha virt. eigenvalues --    1.23750   1.25151   1.28316   1.30270   1.32593
 Alpha virt. eigenvalues --    1.33508   1.33920   1.34704   1.36606   1.38238
 Alpha virt. eigenvalues --    1.39215   1.41176   1.42650   1.43471   1.45285
 Alpha virt. eigenvalues --    1.46922   1.48387   1.50649   1.51837   1.52891
 Alpha virt. eigenvalues --    1.53520   1.54004   1.56241   1.57764   1.59174
 Alpha virt. eigenvalues --    1.60506   1.61710   1.62254   1.63022   1.64612
 Alpha virt. eigenvalues --    1.65393   1.65893   1.66415   1.67184   1.67868
 Alpha virt. eigenvalues --    1.69481   1.69821   1.71194   1.72220   1.73268
 Alpha virt. eigenvalues --    1.74406   1.76182   1.77145   1.77994   1.78430
 Alpha virt. eigenvalues --    1.79703   1.81028   1.81152   1.82385   1.83034
 Alpha virt. eigenvalues --    1.84593   1.85017   1.86297   1.87443   1.87821
 Alpha virt. eigenvalues --    1.89725   1.91396   1.93857   1.94941   1.96678
 Alpha virt. eigenvalues --    1.98211   2.00646   2.02739   2.03422   2.04689
 Alpha virt. eigenvalues --    2.05176   2.05374   2.07316   2.07874   2.08626
 Alpha virt. eigenvalues --    2.11238   2.11323   2.13171   2.14383   2.15848
 Alpha virt. eigenvalues --    2.17888   2.19459   2.20562   2.21445   2.24124
 Alpha virt. eigenvalues --    2.24635   2.25585   2.26620   2.27212   2.30373
 Alpha virt. eigenvalues --    2.32095   2.32525   2.35819   2.40738   2.42062
 Alpha virt. eigenvalues --    2.42764   2.46998   2.47707   2.50807   2.51039
 Alpha virt. eigenvalues --    2.52728   2.53890   2.55297   2.56206   2.57574
 Alpha virt. eigenvalues --    2.59215   2.61198   2.62428   2.62888   2.64213
 Alpha virt. eigenvalues --    2.66336   2.67086   2.69819   2.71158   2.71571
 Alpha virt. eigenvalues --    2.73814   2.74968   2.75370   2.76742   2.77182
 Alpha virt. eigenvalues --    2.80199   2.81098   2.82775   2.83927   2.84585
 Alpha virt. eigenvalues --    2.86267   2.87207   2.87648   2.88185   2.90530
 Alpha virt. eigenvalues --    2.91375   2.94394   2.95217   2.95859   2.96724
 Alpha virt. eigenvalues --    2.99525   3.02302   3.02855   3.05466   3.08994
 Alpha virt. eigenvalues --    3.10773   3.11991   3.13434   3.15769   3.18297
 Alpha virt. eigenvalues --    3.20699   3.22695   3.22994   3.23836   3.25270
 Alpha virt. eigenvalues --    3.27424   3.31372   3.31913   3.32743   3.37680
 Alpha virt. eigenvalues --    3.40875   3.43681   3.43971   3.51076   3.53819
 Alpha virt. eigenvalues --    3.57838   3.62271   3.64780   3.67543   3.69329
 Alpha virt. eigenvalues --    3.72316   3.75829   3.77984   3.80655   3.82110
 Alpha virt. eigenvalues --    3.83292   3.85048   3.88984   3.90542   3.92857
 Alpha virt. eigenvalues --    3.93491   3.95051   4.04380   4.09051   4.13445
 Alpha virt. eigenvalues --    4.13973   4.18846   4.27258   4.30176   4.32326
 Alpha virt. eigenvalues --    4.40478   4.64888   4.95694   4.98694   5.14834
 Alpha virt. eigenvalues --    5.18157   5.19342   5.26604   5.43952   5.51892
 Alpha virt. eigenvalues --    5.63140   5.86785   5.92112   5.95988  23.73427
 Alpha virt. eigenvalues --   23.95015  24.03857  24.04808  24.05012  24.05609
 Alpha virt. eigenvalues --   24.07293  24.09908  24.16619  24.25165  24.30411
 Alpha virt. eigenvalues --   24.33333  35.70637  50.09910  50.14753  50.20315
          Condensed to atoms (all electrons):
               1          2          3          4          5          6
     1  C    5.259540   0.386314   0.421080  -0.072766   0.012096   0.238883
     2  H    0.386314   0.488902  -0.017165   0.005453  -0.006048  -0.049187
     3  H    0.421080  -0.017165   0.525710  -0.008192   0.000359  -0.059079
     4  C   -0.072766   0.005453  -0.008192   5.199697   0.396680   0.274042
     5  H    0.012096  -0.006048   0.000359   0.396680   0.562688  -0.051523
     6  N    0.238883  -0.049187  -0.059079   0.274042  -0.051523   6.854103
     7  H    0.414509  -0.022898  -0.053712   0.011416   0.002356  -0.031430
     8  H   -0.004622   0.003421  -0.000697   0.412856  -0.029856  -0.091725
     9  H   -0.010474  -0.004416   0.002829   0.411107  -0.065451  -0.048897
    10  C    0.086817   0.010281  -0.030406   0.047924  -0.032197   0.240131
    11  H    0.010279  -0.001015  -0.000980  -0.041824   0.005070  -0.067566
    12  C    0.298818   0.038890   0.013612  -0.160864   0.015804  -0.299246
    13  C   -0.326196  -0.016716   0.025571  -0.160494   0.002664  -0.004761
    14  H    0.008055  -0.000489  -0.027647  -0.001872   0.000597  -0.012919
    15  O   -0.000850   0.000123   0.000170   0.002225  -0.000187   0.004758
    16  C   -0.264505  -0.007131  -0.003833   0.026454  -0.001293   0.014966
    17  C   -0.047362  -0.000231  -0.000934  -0.002764  -0.000392   0.008465
    18  C    0.053101  -0.001942   0.019197  -0.028587   0.000261  -0.041404
    19  O   -0.000108  -0.000007   0.000048   0.000246   0.000003  -0.000118
    20  C    0.005970   0.000261  -0.000144  -0.002208   0.000000  -0.001298
    21  C   -0.022044  -0.001087  -0.002226   0.006485   0.000041   0.007365
    22  H    0.008061   0.000414   0.006035  -0.004931  -0.000159  -0.014151
    23  H   -0.001034  -0.000081   0.000116   0.000064   0.000000  -0.000088
    24  H    0.000104   0.000003   0.000002  -0.000010   0.000000  -0.000042
    25  C   -0.011578  -0.000340  -0.001692   0.000651   0.000024   0.003602
    26  H   -0.000148  -0.000005  -0.000010   0.000012   0.000001   0.000029
    27  O    0.000014  -0.000002  -0.000053  -0.000014   0.000000  -0.000030
    28  C   -0.000244  -0.000018  -0.000040   0.000013   0.000001   0.000074
    29  H    0.000040   0.000002   0.000010  -0.000005   0.000000  -0.000007
    30  H   -0.000097  -0.000006   0.000041   0.000012   0.000000   0.000001
    31  H    0.000009   0.000001  -0.000034   0.000003   0.000000   0.000011
               7          8          9         10         11         12
     1  C    0.414509  -0.004622  -0.010474   0.086817   0.010279   0.298818
     2  H   -0.022898   0.003421  -0.004416   0.010281  -0.001015   0.038890
     3  H   -0.053712  -0.000697   0.002829  -0.030406  -0.000980   0.013612
     4  C    0.011416   0.412856   0.411107   0.047924  -0.041824  -0.160864
     5  H    0.002356  -0.029856  -0.065451  -0.032197   0.005070   0.015804
     6  N   -0.031430  -0.091725  -0.048897   0.240131  -0.067566  -0.299246
     7  H    0.538382  -0.002932  -0.001471   0.070519   0.001291  -0.068601
     8  H   -0.002932   0.534716  -0.022651   0.061125  -0.009785  -0.011556
     9  H   -0.001471  -0.022651   0.562415  -0.007699   0.000661   0.008691
    10  C    0.070519   0.061125  -0.007699  13.694238   0.204682   1.877954
    11  H    0.001291  -0.009785   0.000661   0.204682   0.475607   0.161286
    12  C   -0.068601  -0.011556   0.008691   1.877954   0.161286  15.831255
    13  C   -0.048596   0.009897  -0.001085  -5.469452   0.136294   1.165255
    14  H    0.030083  -0.001962   0.001124   0.334226  -0.003653   0.559199
    15  O    0.000405   0.000537   0.000081   0.138556   0.009203  -0.244116
    16  C    0.005593   0.010893   0.000819  -1.211420  -0.101983  -5.792595
    17  C    0.000285   0.005027  -0.000167  -1.220252  -0.082888  -4.549187
    18  C   -0.028708  -0.006170   0.000213  -3.083306   0.085618  -0.660600
    19  O    0.000013  -0.000085   0.000003   0.001334   0.000001  -0.038386
    20  C   -0.001791  -0.000055   0.000008  -0.463129   0.000088  -0.177869
    21  C    0.009117   0.000320  -0.000021   0.557304  -0.007846  -0.884910
    22  H   -0.012875   0.000007  -0.000046  -0.374564   0.005584  -0.103183
    23  H   -0.000091   0.000073   0.000027  -0.015833   0.000371  -0.011093
    24  H   -0.000036  -0.000001   0.000000  -0.003492  -0.000097   0.005866
    25  C    0.003636   0.000199  -0.000023   0.039632  -0.005649  -0.633913
    26  H    0.000045   0.000001   0.000000   0.001872  -0.000001  -0.004928
    27  O    0.000009  -0.000001   0.000000  -0.000698  -0.000052   0.006184
    28  C   -0.000050  -0.000001   0.000000   0.001694  -0.000055  -0.004142
    29  H   -0.000031   0.000000   0.000000  -0.000934  -0.000002  -0.000081
    30  H    0.000045  -0.000001   0.000001   0.000446   0.000014  -0.003346
    31  H    0.000035   0.000000   0.000000   0.001022  -0.000001   0.003023
              13         14         15         16         17         18
     1  C   -0.326196   0.008055  -0.000850  -0.264505  -0.047362   0.053101
     2  H   -0.016716  -0.000489   0.000123  -0.007131  -0.000231  -0.001942
     3  H    0.025571  -0.027647   0.000170  -0.003833  -0.000934   0.019197
     4  C   -0.160494  -0.001872   0.002225   0.026454  -0.002764  -0.028587
     5  H    0.002664   0.000597  -0.000187  -0.001293  -0.000392   0.000261
     6  N   -0.004761  -0.012919   0.004758   0.014966   0.008465  -0.041404
     7  H   -0.048596   0.030083   0.000405   0.005593   0.000285  -0.028708
     8  H    0.009897  -0.001962   0.000537   0.010893   0.005027  -0.006170
     9  H   -0.001085   0.001124   0.000081   0.000819  -0.000167   0.000213
    10  C   -5.469452   0.334226   0.138556  -1.211420  -1.220252  -3.083306
    11  H    0.136294  -0.003653   0.009203  -0.101983  -0.082888   0.085618
    12  C    1.165255   0.559199  -0.244116  -5.792595  -4.549187  -0.660600
    13  C   15.847540  -0.159022   0.850839   0.940966  -4.601146   1.497406
    14  H   -0.159022   0.825459  -0.006578   0.232163   0.062780  -0.844430
    15  O    0.850839  -0.006578   8.140916  -0.149897  -0.158005  -0.243362
    16  C    0.940966   0.232163  -0.149897  23.130153   2.653641 -11.534797
    17  C   -4.601146   0.062780  -0.158005   2.653641  20.922004  -8.822211
    18  C    1.497406  -0.844430  -0.243362 -11.534797  -8.822211  31.954172
    19  O   -0.053176  -0.000472  -0.000264   0.126172   0.372185  -0.008974
    20  C   -0.535411  -0.049621  -0.076824  -3.808814  -0.353735   3.650869
    21  C   -1.327098  -0.038923   0.016434  -1.700907   0.768991   0.414015
    22  H    0.117972  -0.161939  -0.002888  -0.912897  -0.178690   2.190502
    23  H    0.010114  -0.004014   0.069503  -0.160577   0.022182   0.063265
    24  H    0.011245  -0.001036   0.000791  -0.114759  -0.168809   0.105204
    25  C   -1.304466   0.125155  -0.022692   2.375734   1.228786  -6.336742
    26  H   -0.002977   0.001312  -0.000174   0.169113   0.052726  -0.218015
    27  O   -0.005824   0.007412   0.000050   0.050756   0.016258  -0.200333
    28  C   -0.004358   0.008273   0.000078   0.027618   0.063063  -0.145842
    29  H   -0.002245  -0.000081  -0.000028  -0.025466  -0.003251   0.007825
    30  H    0.006871  -0.001596   0.000080   0.040944   0.000718   0.061754
    31  H    0.001205   0.001403   0.000008   0.016892   0.002115  -0.028481
              19         20         21         22         23         24
     1  C   -0.000108   0.005970  -0.022044   0.008061  -0.001034   0.000104
     2  H   -0.000007   0.000261  -0.001087   0.000414  -0.000081   0.000003
     3  H    0.000048  -0.000144  -0.002226   0.006035   0.000116   0.000002
     4  C    0.000246  -0.002208   0.006485  -0.004931   0.000064  -0.000010
     5  H    0.000003   0.000000   0.000041  -0.000159   0.000000   0.000000
     6  N   -0.000118  -0.001298   0.007365  -0.014151  -0.000088  -0.000042
     7  H    0.000013  -0.001791   0.009117  -0.012875  -0.000091  -0.000036
     8  H   -0.000085  -0.000055   0.000320   0.000007   0.000073  -0.000001
     9  H    0.000003   0.000008  -0.000021  -0.000046   0.000027   0.000000
    10  C    0.001334  -0.463129   0.557304  -0.374564  -0.015833  -0.003492
    11  H    0.000001   0.000088  -0.007846   0.005584   0.000371  -0.000097
    12  C   -0.038386  -0.177869  -0.884910  -0.103183  -0.011093   0.005866
    13  C   -0.053176  -0.535411  -1.327098   0.117972   0.010114   0.011245
    14  H   -0.000472  -0.049621  -0.038923  -0.161939  -0.004014  -0.001036
    15  O   -0.000264  -0.076824   0.016434  -0.002888   0.069503   0.000791
    16  C    0.126172  -3.808814  -1.700907  -0.912897  -0.160577  -0.114759
    17  C    0.372185  -0.353735   0.768991  -0.178690   0.022182  -0.168809
    18  C   -0.008974   3.650869   0.414015   2.190502   0.063265   0.105204
    19  O    8.086496  -0.424397  -0.005986  -0.003078   0.261147  -0.028336
    20  C   -0.424397   9.440297  -0.017332   0.222873   0.078714   0.571013
    21  C   -0.005986  -0.017332  10.641709  -0.141888   0.021445   0.055015
    22  H   -0.003078   0.222873  -0.141888   0.769385   0.005083   0.005899
    23  H    0.261147   0.078714   0.021445   0.005083   0.307530   0.002023
    24  H   -0.028336   0.571013   0.055015   0.005899   0.002023   0.469413
    25  C    0.012142  -1.519762  -1.614441  -0.494155  -0.007728  -0.129039
    26  H    0.001603  -0.107192  -0.306054  -0.011624  -0.000831  -0.018477
    27  O    0.000366   0.004704   0.468935  -0.047560   0.000433  -0.000270
    28  C    0.000390   0.022103  -0.208680  -0.025178   0.000005  -0.000313
    29  H   -0.000227  -0.009934   0.040480   0.001774   0.000032   0.001328
    30  H    0.000175   0.008454  -0.094107  -0.001693  -0.000074  -0.000609
    31  H    0.000025  -0.005781   0.013987  -0.005535  -0.000024  -0.000076
              25         26         27         28         29         30
     1  C   -0.011578  -0.000148   0.000014  -0.000244   0.000040  -0.000097
     2  H   -0.000340  -0.000005  -0.000002  -0.000018   0.000002  -0.000006
     3  H   -0.001692  -0.000010  -0.000053  -0.000040   0.000010   0.000041
     4  C    0.000651   0.000012  -0.000014   0.000013  -0.000005   0.000012
     5  H    0.000024   0.000001   0.000000   0.000001   0.000000   0.000000
     6  N    0.003602   0.000029  -0.000030   0.000074  -0.000007   0.000001
     7  H    0.003636   0.000045   0.000009  -0.000050  -0.000031   0.000045
     8  H    0.000199   0.000001  -0.000001  -0.000001   0.000000  -0.000001
     9  H   -0.000023   0.000000   0.000000   0.000000   0.000000   0.000001
    10  C    0.039632   0.001872  -0.000698   0.001694  -0.000934   0.000446
    11  H   -0.005649  -0.000001  -0.000052  -0.000055  -0.000002   0.000014
    12  C   -0.633913  -0.004928   0.006184  -0.004142  -0.000081  -0.003346
    13  C   -1.304466  -0.002977  -0.005824  -0.004358  -0.002245   0.006871
    14  H    0.125155   0.001312   0.007412   0.008273  -0.000081  -0.001596
    15  O   -0.022692  -0.000174   0.000050   0.000078  -0.000028   0.000080
    16  C    2.375734   0.169113   0.050756   0.027618  -0.025466   0.040944
    17  C    1.228786   0.052726   0.016258   0.063063  -0.003251   0.000718
    18  C   -6.336742  -0.218015  -0.200333  -0.145842   0.007825   0.061754
    19  O    0.012142   0.001603   0.000366   0.000390  -0.000227   0.000175
    20  C   -1.519762  -0.107192   0.004704   0.022103  -0.009934   0.008454
    21  C   -1.614441  -0.306054   0.468935  -0.208680   0.040480  -0.094107
    22  H   -0.494155  -0.011624  -0.047560  -0.025178   0.001774  -0.001693
    23  H   -0.007728  -0.000831   0.000433   0.000005   0.000032  -0.000074
    24  H   -0.129039  -0.018477  -0.000270  -0.000313   0.001328  -0.000609
    25  C   13.388402   0.737545  -0.212520   0.108514  -0.012987  -0.018277
    26  H    0.737545   0.529387  -0.012546  -0.004169  -0.010145   0.002895
    27  O   -0.212520  -0.012546   8.042814   0.156568  -0.039789  -0.052286
    28  C    0.108514  -0.004169   0.156568   5.138823   0.400228   0.410258
    29  H   -0.012987  -0.010145  -0.039789   0.400228   0.616839  -0.064897
    30  H   -0.018277   0.002895  -0.052286   0.410258  -0.064897   0.578901
    31  H    0.015595  -0.000116  -0.057604   0.410131  -0.028784  -0.024139
              31
     1  C    0.000009
     2  H    0.000001
     3  H   -0.000034
     4  C    0.000003
     5  H    0.000000
     6  N    0.000011
     7  H    0.000035
     8  H    0.000000
     9  H    0.000000
    10  C    0.001022
    11  H   -0.000001
    12  C    0.003023
    13  C    0.001205
    14  H    0.001403
    15  O    0.000008
    16  C    0.016892
    17  C    0.002115
    18  C   -0.028481
    19  O    0.000025
    20  C   -0.005781
    21  C    0.013987
    22  H   -0.005535
    23  H   -0.000024
    24  H   -0.000076
    25  C    0.015595
    26  H   -0.000116
    27  O   -0.057604
    28  C    0.410131
    29  H   -0.028784
    30  H   -0.024139
    31  H    0.521035
 Mulliken charges:
               1
     1  C   -0.441662
     2  H    0.194716
     3  H    0.192062
     4  C   -0.310812
     5  H    0.188460
     6  N    0.127039
     7  H    0.185482
     8  H    0.143028
     9  H    0.174426
    10  C    0.543624
    11  H    0.227349
    12  C   -0.337219
    13  C   -0.600817
    14  H    0.119012
    15  O   -0.328893
    16  C    1.967996
    17  C    0.010801
    18  C   -1.869498
    19  O   -0.298733
    20  C   -0.450054
    21  C   -0.648095
    22  H    0.163445
    23  H    0.359340
    24  H    0.237494
    25  C    0.286384
    26  H    0.200870
    27  O   -0.124923
    28  C   -0.354745
    29  H    0.130334
    30  H    0.149516
    31  H    0.164074
 Sum of Mulliken charges =   0.00000
 Mulliken charges with hydrogens summed into heavy atoms:
               1
     1  C    0.130597
     4  C    0.195102
     6  N    0.127039
    10  C    0.770973
    12  C   -0.218207
    13  C   -0.600817
    15  O   -0.328893
    16  C    1.967996
    17  C    0.010801
    18  C   -1.706053
    19  O    0.060607
    20  C   -0.212560
    21  C   -0.648095
    25  C    0.487254
    27  O   -0.124923
    28  C    0.089178
 Electronic spatial extent (au):  <R**2>=           5254.0639
 Charge=              0.0000 electrons
 Dipole moment (field-independent basis, Debye):
    X=             -4.1738    Y=             -4.5111    Z=              0.6922  Tot=              6.1846
 Quadrupole moment (field-independent basis, Debye-Ang):
   XX=            -59.4759   YY=           -100.4790   ZZ=            -99.0650
   XY=              2.8172   XZ=              4.0446   YZ=             -3.4411
 Traceless Quadrupole moment (field-independent basis, Debye-Ang):
   XX=             26.8641   YY=            -14.1391   ZZ=            -12.7250
   XY=              2.8172   XZ=              4.0446   YZ=             -3.4411
 Octapole moment (field-independent basis, Debye-Ang**2):
  XXX=            -88.9360  YYY=            -41.9949  ZZZ=              1.7710  XYY=            -14.5364
  XXY=            -30.4851  XXZ=              9.2078  XZZ=             -6.4340  YZZ=             -0.2157
  YYZ=              6.8251  XYZ=            -13.2933
 Hexadecapole moment (field-independent basis, Debye-Ang**3):
 XXXX=          -4178.9261 YYYY=          -1639.5636 ZZZZ=           -164.3508 XXXY=             11.7869
 XXXZ=             21.5177 YYYX=            -55.2218 YYYZ=            -17.7950 ZZZX=              7.0336
 ZZZY=              3.7104 XXYY=          -1035.0901 XXZZ=           -925.4305 YYZZ=           -298.8878
 XXYZ=            -34.7279 YYXZ=             27.0553 ZZXY=             -4.9183
 N-N= 1.054658338462D+03 E-N=-3.852247601836D+03  KE= 7.437817995166D+02
 1\1\GINC-NXN37\SP\RwB97XD TD-FC\6-311++G(d,p)\C12H15N1O3\BTX008\18-Jul
 -2017\0\\# wb97xd 6-311++g** td=(nstates=5)\\exc\\0,1\C,0,-0.060702,0.
 345663,8.564402\H,0,0.880164,0.821688,8.839551\H,0,-0.844388,1.111252,
 8.522682\C,0,1.276203,-0.013048,6.502729\H,0,1.303248,1.045812,6.22195
 \N,0,0.095132,-0.317789,7.286374\H,0,-0.323853,-0.378829,9.340855\H,0,
 1.274544,-0.610692,5.591489\H,0,2.182551,-0.247338,7.06879\C,0,-0.9011
 31,-1.065699,6.786855\H,0,-0.71316,-1.513526,5.81528\C,0,-2.103565,-1.
 322327,7.370854\C,0,-3.042069,-2.171915,6.665122\H,0,-2.367063,-0.8876
 99,8.322662\O,0,-2.760962,-2.645546,5.549876\C,0,-4.369086,-2.475719,7
 .263723\C,0,-5.314324,-3.209368,6.513238\C,0,-4.724468,-2.062452,8.557
 68\O,0,-5.067546,-3.668883,5.283011\C,0,-6.57653,-3.472634,7.059469\C,
 0,-5.966268,-2.335868,9.089272\H,0,-4.029863,-1.513192,9.179372\H,0,-4
 .138939,-3.41196,5.074462\H,0,-7.28858,-4.020957,6.454516\C,0,-6.90334
 7,-3.037726,8.326416\H,0,-7.891858,-3.232053,8.72767\O,0,-6.266718,-1.
 860906,10.343997\C,0,-6.551354,-2.858545,11.30656\H,0,-7.454064,-3.426
 301,11.053821\H,0,-5.709982,-3.554455,11.406967\H,0,-6.712439,-2.34317
 2,12.253253\\Version=ES64L-G09RevD.01\State=1-A\HF=-746.6672621\RMSD=4
 .707e-09\PG=C01 [X(C12H15N1O3)]\\@


 ABOVE ALL I AM AN OPTIMIST FOR NUMBER THEORY,
 AND I HOLD THE HOPE THAT WE MAY NOT BE FAR FROM
 A TIME WHEN IRREFUTABLE ARITHMETIC WILL CELEBRATE
 ITS TRIUMPHS IN PHYSICS AND CHEMISTRY.
   -- HERMANN MINKOWSKI, 1905
 Job cpu time:       0 days  1 hours 19 minutes 38.2 seconds.
 File lengths (MBytes):  RWF=    354 Int=      0 D2E=      0 Chk=     42 Scr=      1
 Normal termination of Gaussian 09 at Tue Jul 18 16:19:09 2017.
