 Entering Gaussian System, Link 0=g09
 Input=5_optS1_E_DCM.com
 Output=5_optS1_E_DCM.out
 Initial command:
 /share/apps/gaussian/g09_D01/g09/l1.exe "/tmp/101763.1.all.q/Gau-15308.inp" -scrdir="/tmp/101763.1.all.q/"
 Entering Link 1 = /share/apps/gaussian/g09_D01/g09/l1.exe PID=     15309.
  
 Copyright (c) 1988,1990,1992,1993,1995,1998,2003,2009,2013,
            Gaussian, Inc.  All Rights Reserved.
  
 This is part of the Gaussian(R) 09 program.  It is based on
 the Gaussian(R) 03 system (copyright 2003, Gaussian, Inc.),
 the Gaussian(R) 98 system (copyright 1998, Gaussian, Inc.),
 the Gaussian(R) 94 system (copyright 1995, Gaussian, Inc.),
 the Gaussian 92(TM) system (copyright 1992, Gaussian, Inc.),
 the Gaussian 90(TM) system (copyright 1990, Gaussian, Inc.),
 the Gaussian 88(TM) system (copyright 1988, Gaussian, Inc.),
 the Gaussian 86(TM) system (copyright 1986, Carnegie Mellon
 University), and the Gaussian 82(TM) system (copyright 1983,
 Carnegie Mellon University). Gaussian is a federally registered
 trademark of Gaussian, Inc.
  
 This software contains proprietary and confidential information,
 including trade secrets, belonging to Gaussian, Inc.
  
 This software is provided under written license and may be
 used, copied, transmitted, or stored only in accord with that
 written license.
  
 The following legend is applicable only to US Government
 contracts under FAR:
  
                    RESTRICTED RIGHTS LEGEND
  
 Use, reproduction and disclosure by the US Government is
 subject to restrictions as set forth in subparagraphs (a)
 and (c) of the Commercial Computer Software - Restricted
 Rights clause in FAR 52.227-19.
  
 Gaussian, Inc.
 340 Quinnipiac St., Bldg. 40, Wallingford CT 06492
  
  
 ---------------------------------------------------------------
 Warning -- This program may not be used in any manner that
 competes with the business of Gaussian, Inc. or will provide
 assistance to any competitor of Gaussian, Inc.  The licensee
 of this program is prohibited from giving any competitor of
 Gaussian, Inc. access to this program.  By using this program,
 the user acknowledges that Gaussian, Inc. is engaged in the
 business of creating and licensing software in the field of
 computational chemistry and represents and warrants to the
 licensee that it is not a competitor of Gaussian, Inc. and that
 it will not use this program in any manner prohibited above.
 ---------------------------------------------------------------
  

 Cite this work as:
 Gaussian 09, Revision D.01,
 M. J. Frisch, G. W. Trucks, H. B. Schlegel, G. E. Scuseria, 
 M. A. Robb, J. R. Cheeseman, G. Scalmani, V. Barone, B. Mennucci, 
 G. A. Petersson, H. Nakatsuji, M. Caricato, X. Li, H. P. Hratchian, 
 A. F. Izmaylov, J. Bloino, G. Zheng, J. L. Sonnenberg, M. Hada, 
 M. Ehara, K. Toyota, R. Fukuda, J. Hasegawa, M. Ishida, T. Nakajima, 
 Y. Honda, O. Kitao, H. Nakai, T. Vreven, J. A. Montgomery, Jr., 
 J. E. Peralta, F. Ogliaro, M. Bearpark, J. J. Heyd, E. Brothers, 
 K. N. Kudin, V. N. Staroverov, T. Keith, R. Kobayashi, J. Normand, 
 K. Raghavachari, A. Rendell, J. C. Burant, S. S. Iyengar, J. Tomasi, 
 M. Cossi, N. Rega, J. M. Millam, M. Klene, J. E. Knox, J. B. Cross, 
 V. Bakken, C. Adamo, J. Jaramillo, R. Gomperts, R. E. Stratmann, 
 O. Yazyev, A. J. Austin, R. Cammi, C. Pomelli, J. W. Ochterski, 
 R. L. Martin, K. Morokuma, V. G. Zakrzewski, G. A. Voth, 
 P. Salvador, J. J. Dannenberg, S. Dapprich, A. D. Daniels, 
 O. Farkas, J. B. Foresman, J. V. Ortiz, J. Cioslowski, 
 and D. J. Fox, Gaussian, Inc., Wallingford CT, 2013.
 
 ******************************************
 Gaussian 09:  ES64L-G09RevD.01 24-Apr-2013
                27-Jul-2017 
 ******************************************
 %chk=5_optS1_E_DCM.chk
 %mem=28GB
 %nproc=4
 Will use up to    4 processors via shared memory.
 ----------------------------------------------------------------------
 # wb97xd 6-311++g** opt td=(nstates=1,root=1) SCRF=(PCM,solvent=dichlo
 romethane)
 ----------------------------------------------------------------------
 1/14=-1,18=20,19=15,26=3,38=1/1,3;
 2/9=110,12=2,17=6,18=5,40=1/2;
 3/5=4,6=6,7=1111,11=9,16=1,25=1,30=1,70=2201,71=1,72=9,74=-58/1,2,8,3;
 4//1;
 5/5=2,38=5,53=9/2;
 8/6=1,10=2,107=1,108=1/1;
 9/8=1,15=2,41=1,42=1,70=2/14;
 10/5=4/2;
 6/7=2,8=2,9=2,10=2/1;
 7/12=6,13=5,14=1/1,2,3,16;
 1/14=-1,18=20,19=15,26=3/3(2);
 2/9=110/2;
 99//99;
 2/9=110/2;
 3/5=4,6=6,7=1111,11=9,16=1,25=1,30=1,70=2205,71=1,72=9,74=-58/1,2,8,3;
 4/5=5,16=3,69=1/1;
 5/5=2,38=5,53=9/2;
 8/6=1,10=2,107=1,108=1/1;
 9/8=1,15=2,41=1,42=1,49=4,70=2/14;
 10/5=4/2;
 7/12=6,13=5,14=1/1,2,3,16;
 1/14=-1,18=20,19=15,26=3/3(-8);
 2/9=110/2;
 6/7=2,8=2,9=2,10=2/1;
 99//99;
 -----------
 Geom Opt s1
 -----------
 Symbolic Z-matrix:
 Charge =  0 Multiplicity = 1
 C                    -12.11459   1.19753   13.2234 
 H                    -12.68048   0.78299   14.05568 
 H                    -11.06787   0.90134   13.3249 
 C                    -13.74957  -0.27865   12.0682 
 H                    -13.40879  -1.16413   12.6104 
 N                    -12.67414   0.69538   11.976 
 H                    -12.18331   2.28698   13.25583 
 H                    -14.06569  -0.57493   11.06966 
 H                    -14.60154   0.15581   12.59702 
 C                    -12.21422   1.10695   10.799 
 H                    -12.7132   0.69907   9.92713 
 C                    -11.1601   1.98385   10.59714 
 C                    -10.86592   2.45183   9.24221 
 H                    -10.68866   2.47756   11.44506 
 O                    -11.66947   3.46336   9.09802 
 C                    -9.90762   1.94811   8.33528 
 C                    -9.74548   2.55044   7.05256 
 C                    -9.10002   0.8375    8.65264 
 O                    -10.48613   3.62682   6.68135 
 C                    -8.82408   2.03574   6.16865 
 C                    -8.17745   0.33306   7.74569 
 H                    -9.18358   0.35688   9.62065 
 H                    -11.07786   3.86092   7.41634 
 H                    -8.72074   2.51108   5.20009 
 C                    -8.03201   0.92642   6.49589 
 H                    -7.32106   0.55751   5.76952 
 O                    -7.45796  -0.75069   8.17631 
 C                    -6.50513  -1.29512   7.29788 
 H                    -6.9684   -1.66017   6.37298 
 H                    -6.05033  -2.13401   7.82409 
 H                    -5.72543  -0.56678   7.04328 
 

 GradGradGradGradGradGradGradGradGradGradGradGradGradGradGradGradGradGrad
 Berny optimization.
 Initialization pass.
                           ----------------------------
                           !    Initial Parameters    !
                           ! (Angstroms and Degrees)  !
 --------------------------                            --------------------------
 ! Name  Definition              Value          Derivative Info.                !
 --------------------------------------------------------------------------------
 ! R1    R(1,2)                  1.0885         estimate D2E/DX2                !
 ! R2    R(1,3)                  1.0925         estimate D2E/DX2                !
 ! R3    R(1,6)                  1.4564         estimate D2E/DX2                !
 ! R4    R(1,7)                  1.0921         estimate D2E/DX2                !
 ! R5    R(4,5)                  1.0928         estimate D2E/DX2                !
 ! R6    R(4,6)                  1.4539         estimate D2E/DX2                !
 ! R7    R(4,8)                  1.0885         estimate D2E/DX2                !
 ! R8    R(4,9)                  1.0928         estimate D2E/DX2                !
 ! R9    R(6,10)                 1.329          estimate D2E/DX2                !
 ! R10   R(10,11)                1.0842         estimate D2E/DX2                !
 ! R11   R(10,12)                1.386          estimate D2E/DX2                !
 ! R12   R(12,13)                1.4633         estimate D2E/DX2                !
 ! R13   R(12,14)                1.0886         estimate D2E/DX2                !
 ! R14   R(13,15)                1.2999         estimate D2E/DX2                !
 ! R15   R(13,16)                1.4123         estimate D2E/DX2                !
 ! R16   R(16,17)                1.4263         estimate D2E/DX2                !
 ! R17   R(16,18)                1.4094         estimate D2E/DX2                !
 ! R18   R(17,19)                1.3583         estimate D2E/DX2                !
 ! R19   R(17,20)                1.3767         estimate D2E/DX2                !
 ! R20   R(18,21)                1.3886         estimate D2E/DX2                !
 ! R21   R(18,22)                1.084          estimate D2E/DX2                !
 ! R22   R(19,23)                0.9722         estimate D2E/DX2                !
 ! R23   R(20,24)                1.0839         estimate D2E/DX2                !
 ! R24   R(20,25)                1.4018         estimate D2E/DX2                !
 ! R25   R(21,25)                1.3911         estimate D2E/DX2                !
 ! R26   R(21,27)                1.3703         estimate D2E/DX2                !
 ! R27   R(25,26)                1.0813         estimate D2E/DX2                !
 ! R28   R(27,28)                1.4057         estimate D2E/DX2                !
 ! R29   R(28,29)                1.097          estimate D2E/DX2                !
 ! R30   R(28,30)                1.0897         estimate D2E/DX2                !
 ! R31   R(28,31)                1.0969         estimate D2E/DX2                !
 ! A1    A(2,1,3)              108.8933         estimate D2E/DX2                !
 ! A2    A(2,1,6)              108.8952         estimate D2E/DX2                !
 ! A3    A(2,1,7)              108.9348         estimate D2E/DX2                !
 ! A4    A(3,1,6)              110.7432         estimate D2E/DX2                !
 ! A5    A(3,1,7)              109.1456         estimate D2E/DX2                !
 ! A6    A(6,1,7)              110.1939         estimate D2E/DX2                !
 ! A7    A(5,4,6)              110.0994         estimate D2E/DX2                !
 ! A8    A(5,4,8)              108.976          estimate D2E/DX2                !
 ! A9    A(5,4,9)              108.9758         estimate D2E/DX2                !
 ! A10   A(6,4,8)              109.8158         estimate D2E/DX2                !
 ! A11   A(6,4,9)              109.9384         estimate D2E/DX2                !
 ! A12   A(8,4,9)              109.0092         estimate D2E/DX2                !
 ! A13   A(1,6,4)              117.4419         estimate D2E/DX2                !
 ! A14   A(1,6,10)             121.2508         estimate D2E/DX2                !
 ! A15   A(4,6,10)             121.3064         estimate D2E/DX2                !
 ! A16   A(6,10,11)            115.8752         estimate D2E/DX2                !
 ! A17   A(6,10,12)            126.0245         estimate D2E/DX2                !
 ! A18   A(11,10,12)           118.0952         estimate D2E/DX2                !
 ! A19   A(10,12,13)           119.347          estimate D2E/DX2                !
 ! A20   A(10,12,14)           120.1923         estimate D2E/DX2                !
 ! A21   A(13,12,14)           119.2824         estimate D2E/DX2                !
 ! A22   A(12,13,15)           103.138          estimate D2E/DX2                !
 ! A23   A(12,13,16)           128.093          estimate D2E/DX2                !
 ! A24   A(15,13,16)           128.7382         estimate D2E/DX2                !
 ! A25   A(13,16,17)           120.2667         estimate D2E/DX2                !
 ! A26   A(13,16,18)           121.6858         estimate D2E/DX2                !
 ! A27   A(17,16,18)           118.0426         estimate D2E/DX2                !
 ! A28   A(16,17,19)           121.227          estimate D2E/DX2                !
 ! A29   A(16,17,20)           119.7106         estimate D2E/DX2                !
 ! A30   A(19,17,20)           119.0624         estimate D2E/DX2                !
 ! A31   A(16,18,21)           121.3253         estimate D2E/DX2                !
 ! A32   A(16,18,22)           120.4178         estimate D2E/DX2                !
 ! A33   A(21,18,22)           118.2564         estimate D2E/DX2                !
 ! A34   A(17,19,23)           108.4267         estimate D2E/DX2                !
 ! A35   A(17,20,24)           118.2694         estimate D2E/DX2                !
 ! A36   A(17,20,25)           121.6118         estimate D2E/DX2                !
 ! A37   A(24,20,25)           120.1188         estimate D2E/DX2                !
 ! A38   A(18,21,25)           120.087          estimate D2E/DX2                !
 ! A39   A(18,21,27)           115.5259         estimate D2E/DX2                !
 ! A40   A(25,21,27)           124.3871         estimate D2E/DX2                !
 ! A41   A(20,25,21)           119.2215         estimate D2E/DX2                !
 ! A42   A(20,25,26)           118.9922         estimate D2E/DX2                !
 ! A43   A(21,25,26)           121.7859         estimate D2E/DX2                !
 ! A44   A(21,27,28)           117.766          estimate D2E/DX2                !
 ! A45   A(27,28,29)           111.6859         estimate D2E/DX2                !
 ! A46   A(27,28,30)           106.2184         estimate D2E/DX2                !
 ! A47   A(27,28,31)           111.6968         estimate D2E/DX2                !
 ! A48   A(29,28,30)           109.1002         estimate D2E/DX2                !
 ! A49   A(29,28,31)           108.9931         estimate D2E/DX2                !
 ! A50   A(30,28,31)           109.061          estimate D2E/DX2                !
 ! D1    D(2,1,6,4)             -4.1615         estimate D2E/DX2                !
 ! D2    D(2,1,6,10)           176.1769         estimate D2E/DX2                !
 ! D3    D(3,1,6,4)            115.5483         estimate D2E/DX2                !
 ! D4    D(3,1,6,10)           -64.1134         estimate D2E/DX2                !
 ! D5    D(7,1,6,4)           -123.5896         estimate D2E/DX2                !
 ! D6    D(7,1,6,10)            56.7487         estimate D2E/DX2                !
 ! D7    D(5,4,6,1)            -59.44           estimate D2E/DX2                !
 ! D8    D(5,4,6,10)           120.2214         estimate D2E/DX2                !
 ! D9    D(8,4,6,1)           -179.4342         estimate D2E/DX2                !
 ! D10   D(8,4,6,10)             0.2272         estimate D2E/DX2                !
 ! D11   D(9,4,6,1)             60.6314         estimate D2E/DX2                !
 ! D12   D(9,4,6,10)          -119.7072         estimate D2E/DX2                !
 ! D13   D(1,6,10,11)         -178.2599         estimate D2E/DX2                !
 ! D14   D(1,6,10,12)            2.5794         estimate D2E/DX2                !
 ! D15   D(4,6,10,11)            2.0916         estimate D2E/DX2                !
 ! D16   D(4,6,10,12)         -177.0691         estimate D2E/DX2                !
 ! D17   D(6,10,12,13)        -173.455          estimate D2E/DX2                !
 ! D18   D(6,10,12,14)          -5.9462         estimate D2E/DX2                !
 ! D19   D(11,10,12,13)          7.401          estimate D2E/DX2                !
 ! D20   D(11,10,12,14)        174.9099         estimate D2E/DX2                !
 ! D21   D(10,12,13,15)         85.0629         estimate D2E/DX2                !
 ! D22   D(10,12,13,16)        -96.8302         estimate D2E/DX2                !
 ! D23   D(14,12,13,15)        -82.5606         estimate D2E/DX2                !
 ! D24   D(14,12,13,16)         95.5463         estimate D2E/DX2                !
 ! D25   D(12,13,16,17)       -178.9842         estimate D2E/DX2                !
 ! D26   D(12,13,16,18)          1.8343         estimate D2E/DX2                !
 ! D27   D(15,13,16,17)         -1.3479         estimate D2E/DX2                !
 ! D28   D(15,13,16,18)        179.4706         estimate D2E/DX2                !
 ! D29   D(13,16,17,19)          1.0515         estimate D2E/DX2                !
 ! D30   D(13,16,17,20)       -178.8781         estimate D2E/DX2                !
 ! D31   D(18,16,17,19)       -179.7376         estimate D2E/DX2                !
 ! D32   D(18,16,17,20)          0.3328         estimate D2E/DX2                !
 ! D33   D(13,16,18,21)        178.7893         estimate D2E/DX2                !
 ! D34   D(13,16,18,22)         -1.4755         estimate D2E/DX2                !
 ! D35   D(17,16,18,21)         -0.4098         estimate D2E/DX2                !
 ! D36   D(17,16,18,22)        179.3255         estimate D2E/DX2                !
 ! D37   D(16,17,19,23)          0.2994         estimate D2E/DX2                !
 ! D38   D(20,17,19,23)       -179.7706         estimate D2E/DX2                !
 ! D39   D(16,17,20,24)        179.9493         estimate D2E/DX2                !
 ! D40   D(16,17,20,25)         -0.0413         estimate D2E/DX2                !
 ! D41   D(19,17,20,24)          0.0181         estimate D2E/DX2                !
 ! D42   D(19,17,20,25)       -179.9725         estimate D2E/DX2                !
 ! D43   D(16,18,21,25)          0.19           estimate D2E/DX2                !
 ! D44   D(16,18,21,27)       -179.8505         estimate D2E/DX2                !
 ! D45   D(22,18,21,25)       -179.5508         estimate D2E/DX2                !
 ! D46   D(22,18,21,27)          0.4087         estimate D2E/DX2                !
 ! D47   D(17,20,25,21)         -0.1862         estimate D2E/DX2                !
 ! D48   D(17,20,25,26)       -179.9616         estimate D2E/DX2                !
 ! D49   D(24,20,25,21)        179.8234         estimate D2E/DX2                !
 ! D50   D(24,20,25,26)          0.048          estimate D2E/DX2                !
 ! D51   D(18,21,25,20)          0.1122         estimate D2E/DX2                !
 ! D52   D(18,21,25,26)        179.881          estimate D2E/DX2                !
 ! D53   D(27,21,25,20)       -179.8435         estimate D2E/DX2                !
 ! D54   D(27,21,25,26)         -0.0746         estimate D2E/DX2                !
 ! D55   D(18,21,27,28)       -179.6651         estimate D2E/DX2                !
 ! D56   D(25,21,27,28)          0.2923         estimate D2E/DX2                !
 ! D57   D(21,27,28,29)        -61.2359         estimate D2E/DX2                !
 ! D58   D(21,27,28,30)        179.9213         estimate D2E/DX2                !
 ! D59   D(21,27,28,31)         61.1197         estimate D2E/DX2                !
 --------------------------------------------------------------------------------
 Trust Radius=3.00D-01 FncErr=1.00D-07 GrdErr=1.00D-06
 Number of steps in this run=    150 maximum allowed number of steps=    186.
 GradGradGradGradGradGradGradGradGradGradGradGradGradGradGradGradGradGrad

                          Input orientation:                          
 ---------------------------------------------------------------------
 Center     Atomic      Atomic             Coordinates (Angstroms)
 Number     Number       Type             X           Y           Z
 ---------------------------------------------------------------------
      1          6           0      -12.114587    1.197526   13.223398
      2          1           0      -12.680479    0.782994   14.055677
      3          1           0      -11.067874    0.901343   13.324904
      4          6           0      -13.749573   -0.278653   12.068204
      5          1           0      -13.408790   -1.164134   12.610398
      6          7           0      -12.674138    0.695379   11.976003
      7          1           0      -12.183312    2.286979   13.255832
      8          1           0      -14.065688   -0.574926   11.069664
      9          1           0      -14.601536    0.155810   12.597022
     10          6           0      -12.214224    1.106954   10.798997
     11          1           0      -12.713202    0.699070    9.927125
     12          6           0      -11.160104    1.983851   10.597138
     13          6           0      -10.865919    2.451827    9.242214
     14          1           0      -10.688658    2.477562   11.445061
     15          8           0      -11.669469    3.463360    9.098016
     16          6           0       -9.907619    1.948112    8.335280
     17          6           0       -9.745475    2.550438    7.052563
     18          6           0       -9.100024    0.837495    8.652639
     19          8           0      -10.486132    3.626816    6.681348
     20          6           0       -8.824084    2.035736    6.168651
     21          6           0       -8.177452    0.333064    7.745689
     22          1           0       -9.183578    0.356881    9.620647
     23          1           0      -11.077857    3.860915    7.416340
     24          1           0       -8.720741    2.511078    5.200090
     25          6           0       -8.032010    0.926417    6.495892
     26          1           0       -7.321057    0.557508    5.769520
     27          8           0       -7.457957   -0.750687    8.176306
     28          6           0       -6.505131   -1.295118    7.297880
     29          1           0       -6.968401   -1.660168    6.372984
     30          1           0       -6.050329   -2.134009    7.824092
     31          1           0       -5.725432   -0.566777    7.043277
 ---------------------------------------------------------------------
                    Distance matrix (angstroms):
                    1          2          3          4          5
     1  C    0.000000
     2  H    1.088466   0.000000
     3  H    1.092536   1.774410   0.000000
     4  C    2.487319   2.494014   3.187977   0.000000
     5  H    2.761914   2.531911   3.202593   1.092787   0.000000
     6  N    1.456449   2.081528   2.107615   1.453891   2.097608
     7  H    1.092100   1.774513   1.780157   3.232043   3.718677
     8  H    3.403961   3.560762   4.031422   1.088480   1.775540
     9  H    2.768110   2.492287   3.684074   1.092816   1.779066
    10  C    2.428137   3.305799   2.781474   2.426539   3.141019
    11  H    3.387066   4.129535   3.780598   2.571814   3.339959
    12  C    2.902858   3.964226   2.936160   3.740095   4.361148
    13  C    4.356865   5.408055   4.371858   4.874136   5.557520
    14  H    2.614239   3.695163   2.482354   4.165841   4.692449
    15  O    4.727675   5.725810   4.979200   5.210711   6.064303
    16  C    5.415513   6.462909   5.228601   5.801191   6.341996
    17  C    6.747019   7.796263   6.618951   7.013787   7.622824
    18  C    5.487171   6.481932   5.070165   5.876238   6.183514
    19  O    7.166012   8.202634   7.204406   7.410867   8.163870
    20  C    7.829397   8.868276   7.585077   8.026305   8.529643
    21  C    6.801002   7.765027   6.309130   7.078620   7.298897
    22  H    4.719885   5.663866   4.191483   5.219459   5.394860
    23  H    6.472277   7.491515   6.608350   6.775982   7.593590
    24  H    8.810056   9.853285   8.608884   8.957831   9.507768
    25  C    7.874025   8.875764   7.473453   8.074242   8.406387
    26  H    8.885260   9.870899   8.440420   9.038717   9.317841
    27  O    7.138128   8.012111   6.501443   7.413104   7.432666
    28  C    8.531766   9.387294   7.871981   8.733335   8.712090
    29  H    9.032044   9.880316   8.467361   8.962612   8.979421
    30  H    8.776495   9.555127   8.040401   8.985165   8.831553
    31  H    9.062448   9.968366   8.375912   9.472051   9.507032
                    6          7          8          9         10
     6  N    0.000000
     7  H    2.100491   0.000000
     8  H    2.090822   4.063640   0.000000
     9  H    2.095629   3.289942   1.775931   0.000000
    10  C    1.329006   2.725702   2.515929   3.136372   0.000000
    11  H    2.049254   3.725927   2.181211   3.315009   1.084209
    12  C    2.419448   2.864873   3.900390   4.380037   1.385953
    13  C    3.718651   4.227509   4.768577   5.520984   2.459712
    14  H    2.720332   2.355675   4.567596   4.693417   2.150190
    15  O    4.117510   4.351476   5.092840   5.637371   2.956813
    16  C    4.741079   5.431891   5.579616   6.588448   3.478200
    17  C    6.021509   6.670308   6.676020   7.749619   4.713187
    18  C    4.882544   5.726871   5.700418   6.803638   3.791794
    19  O    6.435376   6.920941   7.051608   7.998727   5.127479
    20  C    7.095408   7.847017   7.636092   8.845170   5.813415
    21  C    6.184417   7.087057   6.822359   8.052062   5.120266
    22  H    4.224487   5.092961   5.177153   6.184942   3.337055
    23  H    5.775747   6.148087   6.476928   7.278982   4.507549
    24  H    8.052273   8.771237   8.517264   9.738873   6.747129
    25  C    7.185704   8.048679   7.718723   8.998683   6.003351
    26  H    8.197251   9.092715   8.652397   9.989070   7.038509
    27  O    6.613422   7.573505   7.215575   8.449567   5.740332
    28  C    7.993970   8.976099   8.479803   9.784573   7.114880
    29  H    8.336538   9.494675   8.579513  10.015047   7.400352
    30  H    8.313763   9.309265   8.786948  10.057200   7.572813
    31  H    8.614484   9.404466   9.261303  10.495306   7.681877
                   11         12         13         14         15
    11  H    0.000000
    12  C    2.124075   0.000000
    13  C    2.636990   1.463340   0.000000
    14  H    3.092886   1.088570   2.210117   0.000000
    15  O    3.068892   2.166972   1.299879   2.728078   0.000000
    16  C    3.459100   2.585730   1.412302   3.249781   2.445784
    17  C    4.527480   3.858265   2.461644   4.493211   2.952805
    18  C    3.833866   3.056000   2.464153   3.607104   3.700753
    19  O    4.905773   4.299649   2.843039   4.904566   2.695791
    20  C    5.571180   5.007113   3.713356   5.613586   4.326142
    21  C    5.046350   4.444330   3.735853   4.958869   4.880750
    22  H    3.559391   2.739931   2.713352   3.176640   4.012855
    23  H    4.356106   3.694267   2.316088   4.277351   1.826496
    24  H    6.447323   5.946141   4.576469   6.547785   4.979525
    25  C    5.808494   5.265297   4.230863   5.827358   5.141813
    26  H    6.810356   6.330769   5.311694   6.873071   6.199318
    27  O    5.725798   5.200386   4.796505   5.616385   6.028646
    28  C    7.030637   6.580693   6.069308   6.995293   7.249413
    29  H    7.155464   6.978017   6.350719   7.529083   7.468359
    30  H    7.539427   7.124349   6.799329   7.476102   8.032942
    31  H    7.664716   6.976481   6.353889   7.299131   7.469641
                   16         17         18         19         20
    16  C    0.000000
    17  C    1.426342   0.000000
    18  C    1.409396   2.431260   0.000000
    19  O    2.426565   1.358294   3.686136   0.000000
    20  C    2.424048   1.376655   2.771664   2.357286   0.000000
    21  C    2.439155   2.802832   1.388578   4.160724   2.409206
    22  H    2.169889   3.423810   1.083979   4.585695   3.855394
    23  H    2.423370   1.903924   3.818550   0.972190   3.157135
    24  H    3.399269   2.117377   3.855494   2.560391   1.083854
    25  C    2.818709   2.425549   2.408344   3.653664   1.401805
    26  H    3.899642   3.390542   3.399337   4.502197   2.145589
    27  O    3.648237   4.170487   2.333581   5.528768   3.696097
    28  C    4.813695   5.034711   3.621723   6.360339   4.212753
    29  H    5.050672   5.089516   3.997370   6.357808   4.140654
    30  H    5.639478   6.016095   4.337853   7.359981   5.274559
    31  H    5.048230   5.087029   3.993732   6.354642   4.140011
                   21         22         23         24         25
    21  C    0.000000
    22  H    2.127986   0.000000
    23  H    4.578925   4.552529   0.000000
    24  H    3.393963   4.939242   3.505684   0.000000
    25  C    1.391120   3.378546   4.328474   2.159769   0.000000
    26  H    2.165417   4.282571   5.266693   2.469778   1.081279
    27  O    1.370263   2.508106   5.911692   4.592559   2.442541
    28  C    2.376587   3.911320   6.892643   4.878194   2.812430
    29  H    2.705383   4.418462   6.961220   4.673935   2.799427
    30  H    3.258412   4.387413   7.834629   5.966014   3.880384
    31  H    2.704718   4.410754   6.956442   4.673586   2.801707
                   26         27         28         29         30
    26  H    0.000000
    27  O    2.742760   0.000000
    28  C    2.536502   1.405672   0.000000
    29  H    2.325214   2.078170   1.096956   0.000000
    30  H    3.616667   2.004757   1.089716   1.781319   0.000000
    31  H    2.330771   2.078273   1.096920   1.785992   1.780855
                   31
    31  H    0.000000
 Stoichiometry    C12H15NO3
 Framework group  C1[X(C12H15NO3)]
 Deg. of freedom    87
 Full point group                 C1      NOp   1
 Largest Abelian subgroup         C1      NOp   1
 Largest concise Abelian subgroup C1      NOp   1
                         Standard orientation:                         
 ---------------------------------------------------------------------
 Center     Atomic      Atomic             Coordinates (Angstroms)
 Number     Number       Type             X           Y           Z
 ---------------------------------------------------------------------
      1          6           0        4.325858   -1.012789   -1.111286
      2          1           0        5.297083   -1.491677   -1.001075
      3          1           0        3.665349   -1.677532   -1.672962
      4          6           0        4.537654   -1.217008    1.358571
      5          1           0        4.651960   -2.302671    1.309051
      6          7           0        3.780906   -0.741470    0.211838
      7          1           0        4.451393   -0.080334   -1.665769
      8          1           0        4.016176   -0.957590    2.278110
      9          1           0        5.528187   -0.755501    1.368763
     10          6           0        2.632479   -0.090203    0.364233
     11          1           0        2.322842    0.089894    1.387560
     12          6           0        1.806007    0.354437   -0.655622
     13          6           0        0.645327    1.183311   -0.328277
     14          1           0        2.121520    0.266237   -1.693724
     15          8           0        1.143803    2.382720   -0.277046
     16          6           0       -0.695823    0.775546   -0.156109
     17          6           0       -1.706683    1.736462    0.142643
     18          6           0       -1.076551   -0.577871   -0.254619
     19          8           0       -1.412706    3.058423    0.247333
     20          6           0       -3.006339    1.323452    0.331051
     21          6           0       -2.393200   -0.973467   -0.059460
     22          1           0       -0.341677   -1.338931   -0.490755
     23          1           0       -0.461618    3.175643    0.083491
     24          1           0       -3.755475    2.073204    0.557784
     25          6           0       -3.369174   -0.027249    0.236108
     26          1           0       -4.402716   -0.304442    0.391409
     27          8           0       -2.629951   -2.317704   -0.180267
     28          6           0       -3.948724   -2.769255    0.000986
     29          1           0       -4.319175   -2.544645    1.008771
     30          1           0       -3.922000   -3.849939   -0.136461
     31          1           0       -4.632350   -2.331138   -0.736539
 ---------------------------------------------------------------------
 Rotational constants (GHZ):      0.7395356      0.2773337      0.2144142
 Standard basis: 6-311++G(d,p) (5D, 7F)
 There are   473 symmetry adapted cartesian basis functions of A   symmetry.
 There are   457 symmetry adapted basis functions of A   symmetry.
   457 basis functions,   711 primitive gaussians,   473 cartesian basis functions
    59 alpha electrons       59 beta electrons
       nuclear repulsion energy      1055.5434165141 Hartrees.
 NAtoms=   31 NActive=   31 NUniq=   31 SFac= 1.00D+00 NAtFMM=   60 NAOKFM=F Big=F
 Integral buffers will be    131072 words long.
 Raffenetti 1 integral format.
 Two-electron integral symmetry is turned on.
 Nuclear repulsion after empirical dispersion term =     1055.5252418117 Hartrees.
 ------------------------------------------------------------------------------
 Polarizable Continuum Model (PCM)
 =================================
 Model                : PCM (using non-symmetric T matrix).
 Atomic radii         : UFF (Universal Force Field).
 Polarization charges : Total charges.
 Charge compensation  : None.
 Solution method      : On-the-fly selection.
 Cavity type          : Scaled VdW (van der Waals Surface) (Alpha=1.100).
 Cavity algorithm     : GePol (No added spheres)
                        Default sphere list used, NSphG=   31.
                        Lebedev-Laikov grids with approx.  5.0 points / Ang**2.
                        Smoothing algorithm: Karplus/York (Gamma=1.0000).
                        Polarization charges: spherical gaussians, with
                                              point-specific exponents (IZeta= 3).
                        Self-potential: point-specific (ISelfS= 7).
                        Self-field    : sphere-specific E.n sum rule (ISelfD= 2).
 1st derivatives      : Analytical E(r).r(x)/FMM algorithm (CHGder, D1EAlg=3).
                        Cavity 1st derivative terms included.
 Solvent              : Dichloromethane, Eps=   8.930000 Eps(inf)=   2.028346
 ------------------------------------------------------------------------------
 One-electron integrals computed using PRISM.
 NBasis=   457 RedAO= T EigKep=  1.18D-06  NBF=   457
 NBsUse=   455 1.00D-06 EigRej=  4.15D-07 NBFU=   455
 ExpMin= 3.60D-02 ExpMax= 8.59D+03 ExpMxC= 1.30D+03 IAcc=3 IRadAn=         5 AccDes= 0.00D+00
 Harris functional with IExCor= 4639 and IRadAn=       5 diagonalized for initial guess.
 HarFok:  IExCor= 4639 AccDes= 0.00D+00 IRadAn=         5 IDoV= 1 UseB2=F ITyADJ=14
 ICtDFT=  3500011 ScaDFX=  1.000000  1.000000  1.000000  1.000000
 FoFCou: FMM=F IPFlag=           0 FMFlag=      100000 FMFlg1=           0
         NFxFlg=           0 DoJE=T BraDBF=F KetDBF=T FulRan=T
         wScrn=  0.000000 ICntrl=     500 IOpCl=  0 I1Cent=   200000004 NGrid=           0
         NMat0=    1 NMatS0=      1 NMatT0=    0 NMatD0=    1 NMtDS0=    0 NMtDT0=    0
 Petite list used in FoFCou.
 Requested convergence on RMS density matrix=1.00D-08 within 128 cycles.
 Requested convergence on MAX density matrix=1.00D-06.
 Requested convergence on             energy=1.00D-06.
 No special actions if energy rises.
 Inv3:  Mode=1 IEnd=    17294403.
 Iteration    1 A*A^-1 deviation from unit magnitude is 4.44D-15 for   2387.
 Iteration    1 A*A^-1 deviation from orthogonality  is 3.73D-15 for   2204     73.
 Iteration    1 A^-1*A deviation from unit magnitude is 4.88D-15 for   2387.
 Iteration    1 A^-1*A deviation from orthogonality  is 8.42D-11 for   1541   1510.
 Error on total polarization charges =  0.01417
 SCF Done:  E(RwB97XD) =  -746.633830058     A.U. after   18 cycles
            NFock= 18  Conv=0.86D-08     -V/T= 2.0041
 DoSCS=F DFT=T ScalE2(SS,OS)=  1.000000  1.000000
 ExpMin= 3.60D-02 ExpMax= 8.59D+03 ExpMxC= 1.30D+03 IAcc=3 IRadAn=         5 AccDes= 0.00D+00
 HarFok:  IExCor=  205 AccDes= 0.00D+00 IRadAn=         5 IDoV=-2 UseB2=F ITyADJ=14
 ICtDFT= 12500011 ScaDFX=  1.000000  1.000000  1.000000  1.000000
 Range of M.O.s used for correlation:    17   455
 NBasis=   457 NAE=    59 NBE=    59 NFC=    16 NFV=     0
 NROrb=    439 NOA=    43 NOB=    43 NVA=   396 NVB=   396

 **** Warning!!: The largest alpha MO coefficient is  0.13155709D+03

 Would need an additional         29152300000 words for in-memory AO integral storage.
 NEqPCM:  Using equilibrium solvation (IEInf=0, Eps=   8.9300, EpsInf=   2.0283)
 Orbital symmetries:
       Occupied  (A) (A) (A) (A) (A) (A) (A) (A) (A) (A) (A) (A)
                 (A) (A) (A) (A) (A) (A) (A) (A) (A) (A) (A) (A)
                 (A) (A) (A) (A) (A) (A) (A) (A) (A) (A) (A) (A)
                 (A) (A) (A) (A) (A) (A) (A) (A) (A) (A) (A) (A)
                 (A) (A) (A) (A) (A) (A) (A) (A) (A) (A) (A)
       Virtual   (A) (A) (A) (A) (A) (A) (A) (A) (A) (A) (A) (A)
                 (A) (A) (A) (A) (A) (A) (A) (A) (A) (A) (A) (A)
                 (A) (A) (A) (A) (A) (A) (A) (A) (A) (A) (A) (A)
                 (A) (A) (A) (A) (A) (A) (A) (A) (A) (A) (A) (A)
                 (A) (A) (A) (A) (A) (A) (A) (A) (A) (A) (A) (A)
                 (A) (A) (A) (A) (A) (A) (A) (A) (A) (A) (A) (A)
                 (A) (A) (A) (A) (A) (A) (A) (A) (A) (A) (A) (A)
                 (A) (A) (A) (A) (A) (A) (A) (A) (A) (A) (A) (A)
                 (A) (A) (A) (A) (A) (A) (A) (A) (A) (A) (A) (A)
                 (A) (A) (A) (A) (A) (A) (A) (A) (A) (A) (A) (A)
                 (A) (A) (A) (A) (A) (A) (A) (A) (A) (A) (A) (A)
                 (A) (A) (A) (A) (A) (A) (A) (A) (A) (A) (A) (A)
                 (A) (A) (A) (A) (A) (A) (A) (A) (A) (A) (A) (A)
                 (A) (A) (A) (A) (A) (A) (A) (A) (A) (A) (A) (A)
                 (A) (A) (A) (A) (A) (A) (A) (A) (A) (A) (A) (A)
                 (A) (A) (A) (A) (A) (A) (A) (A) (A) (A) (A) (A)
                 (A) (A) (A) (A) (A) (A) (A) (A) (A) (A) (A) (A)
                 (A) (A) (A) (A) (A) (A) (A) (A) (A) (A) (A) (A)
                 (A) (A) (A) (A) (A) (A) (A) (A) (A) (A) (A) (A)
                 (A) (A) (A) (A) (A) (A) (A) (A) (A) (A) (A) (A)
                 (A) (A) (A) (A) (A) (A) (A) (A) (A) (A) (A) (A)
                 (A) (A) (A) (A) (A) (A) (A) (A) (A) (A) (A) (A)
                 (A) (A) (A) (A) (A) (A) (A) (A) (A) (A) (A) (A)
                 (A) (A) (A) (A) (A) (A) (A) (A) (A) (A) (A) (A)
                 (A) (A) (A) (A) (A) (A) (A) (A) (A) (A) (A) (A)
                 (A) (A) (A) (A) (A) (A) (A) (A) (A) (A) (A) (A)
                 (A) (A) (A) (A) (A) (A) (A) (A) (A) (A) (A) (A)
                 (A) (A) (A) (A) (A) (A) (A) (A) (A) (A) (A) (A)
                 (A) (A) (A) (A) (A) (A) (A) (A) (A) (A) (A) (A)
                 (A) (A) (A) (A) (A) (A) (A) (A) (A) (A) (A) (A)
                 (A) (A) (A) (A) (A) (A) (A) (A) (A) (A) (A) (A)
                 (A) (A) (A) (A) (A) (A) (A) (A) (A) (A) (A) (A)
                 (A) (A) (A) (A) (A) (A) (A) (A) (A) (A) (A) (A)
     8 initial guesses have been made.
 Convergence on wavefunction:    0.000001000000000
 Iteration     1 Dimension     8 NMult     0 NNew      8
 CISAX will form     8 AO SS matrices at one time.
 Iteration     2 Dimension    12 NMult     8 NNew      4
 Iteration     3 Dimension    16 NMult    12 NNew      4
 Iteration     4 Dimension    20 NMult    16 NNew      4
 Iteration     5 Dimension    24 NMult    20 NNew      4
 Iteration     6 Dimension    28 NMult    24 NNew      4
 Iteration     7 Dimension    32 NMult    28 NNew      4
 Iteration     8 Dimension    36 NMult    32 NNew      4
 Iteration     9 Dimension    40 NMult    36 NNew      4
 Iteration    10 Dimension    44 NMult    40 NNew      4
 Iteration    11 Dimension    48 NMult    44 NNew      4
 ***********************************************************************
 Excited states from <AA,BB:AA,BB> singles matrix:
 ***********************************************************************
 
 Ground to excited state transition densities written to RWF  633
 Ground to excited state transition electric dipole moments (Au):
       state          X           Y           Z        Dip. S.      Osc.
         1         0.0043      0.0542     -0.0316      0.0040      0.0002
 Ground to excited state transition velocity dipole moments (Au):
       state          X           Y           Z        Dip. S.      Osc.
         1        -0.0010     -0.0073     -0.0006      0.0001      0.0005
 Ground to excited state transition magnetic dipole moments (Au):
       state          X           Y           Z
         1         0.1994      0.2695      0.0118
 Ground to excited state transition velocity quadrupole moments (Au):
       state          XX          YY          ZZ          XY          XZ          YZ
         1         0.0201     -0.0153      0.0082     -0.0252      0.0019      0.0045
 <0|del|b> * <b|rxdel|0> + <0|del|b> * <b|delr+rdel|0>
 Rotatory Strengths (R) in cgs (10**-40 erg-esu-cm/Gauss)
       state          XX          YY          ZZ    R(velocity)    E-M Angle
         1        -8.6515     -1.0204     -9.6833     -6.4517      151.25
 1/2[<0|r|b>*<b|rxdel|0> + (<0|rxdel|b>*<b|r|0>)*]
 Rotatory Strengths (R) in cgs (10**-40 erg-esu-cm/Gauss)
       state          XX          YY          ZZ     R(length)
         1        -0.6049    -10.3334      0.2636     -3.5582
  1/2[<0|del|b>*<b|r|0> + (<0|r|b>*<b|del|0>)*] (Au)
       state          X           Y           Z        Dip. S.   Osc.(frdel)
         1         0.0000     -0.0004      0.0000      0.0004      0.0003

 Excitation energies and oscillator strengths:
 
 Excited State   1:      Singlet-A      2.1502 eV  576.63 nm  f=0.0002  <S**2>=0.000
      56 -> 60         0.13897
      59 -> 60         0.66711
      59 -> 76         0.10483
 This state for optimization and/or second-order correction.
 Total Energy, E(TD-HF/TD-KS) =  -746.554813356    
 Copying the excited state density for this state as the 1-particle RhoCI density.
 SavETr:  write IOETrn=   770 NScale= 10 NData=  16 NLR=1 NState=    1 LETran=      28.
          IDoAtm=1111111111111111111111111111111
 NEqPCM:  Using equilibrium solvation (IEInf=0, Eps=   8.9300, EpsInf=   2.0283)
          Differentiating once with respect to electric field.
                with respect to dipole field.
          Differentiating once with respect to nuclear coordinates.
          There are     1 degrees of freedom in the 1st order CPHF.  IDoFFX=0 NUNeed=     1.
 LinEq1:  Iter=  0 NonCon=     1 RMS=4.88D-03 Max=9.80D-02 NDo=     1
 AX will form     1 AO Fock derivatives at one time.
 LinEq1:  Iter=  1 NonCon=     1 RMS=1.71D-03 Max=4.87D-02 NDo=     1
 LinEq1:  Iter=  2 NonCon=     1 RMS=1.32D-03 Max=6.31D-02 NDo=     1
 LinEq1:  Iter=  3 NonCon=     1 RMS=6.19D-04 Max=4.03D-02 NDo=     1
 LinEq1:  Iter=  4 NonCon=     1 RMS=3.78D-04 Max=1.35D-02 NDo=     1
 LinEq1:  Iter=  5 NonCon=     1 RMS=1.93D-04 Max=1.17D-02 NDo=     1
 LinEq1:  Iter=  6 NonCon=     1 RMS=9.53D-05 Max=3.19D-03 NDo=     1
 LinEq1:  Iter=  7 NonCon=     1 RMS=4.38D-05 Max=1.98D-03 NDo=     1
 LinEq1:  Iter=  8 NonCon=     1 RMS=2.14D-05 Max=1.22D-03 NDo=     1
 LinEq1:  Iter=  9 NonCon=     1 RMS=1.06D-05 Max=7.00D-04 NDo=     1
 LinEq1:  Iter= 10 NonCon=     1 RMS=5.02D-06 Max=2.89D-04 NDo=     1
 LinEq1:  Iter= 11 NonCon=     1 RMS=2.72D-06 Max=1.31D-04 NDo=     1
 LinEq1:  Iter= 12 NonCon=     1 RMS=1.34D-06 Max=4.43D-05 NDo=     1
 LinEq1:  Iter= 13 NonCon=     1 RMS=6.95D-07 Max=3.22D-05 NDo=     1
 LinEq1:  Iter= 14 NonCon=     1 RMS=3.02D-07 Max=8.60D-06 NDo=     1
 LinEq1:  Iter= 15 NonCon=     1 RMS=1.28D-07 Max=5.38D-06 NDo=     1
 LinEq1:  Iter= 16 NonCon=     1 RMS=4.68D-08 Max=1.46D-06 NDo=     1
 LinEq1:  Iter= 17 NonCon=     1 RMS=2.15D-08 Max=7.16D-07 NDo=     1
 LinEq1:  Iter= 18 NonCon=     1 RMS=9.86D-09 Max=2.24D-07 NDo=     1
 LinEq1:  Iter= 19 NonCon=     1 RMS=4.16D-09 Max=7.99D-08 NDo=     1
 LinEq1:  Iter= 20 NonCon=     1 RMS=2.08D-09 Max=7.25D-08 NDo=     1
 LinEq1:  Iter= 21 NonCon=     1 RMS=8.48D-10 Max=2.85D-08 NDo=     1
 LinEq1:  Iter= 22 NonCon=     1 RMS=3.87D-10 Max=1.89D-08 NDo=     1
 LinEq1:  Iter= 23 NonCon=     1 RMS=1.27D-10 Max=5.62D-09 NDo=     1
 LinEq1:  Iter= 24 NonCon=     1 RMS=6.33D-11 Max=2.74D-09 NDo=     1
 LinEq1:  Iter= 25 NonCon=     1 RMS=3.18D-11 Max=1.39D-09 NDo=     1
 LinEq1:  Iter= 26 NonCon=     0 RMS=1.22D-11 Max=3.05D-10 NDo=     1
 Linear equations converged to 1.000D-10 1.000D-09 after    26 iterations.
 End of Minotr F.D. properties file   721 does not exist.
 End of Minotr F.D. properties file   722 does not exist.
 End of Minotr F.D. properties file   788 does not exist.

 **********************************************************************

            Population analysis using the SCF density.

 **********************************************************************

 Orbital symmetries:
       Occupied  (A) (A) (A) (A) (A) (A) (A) (A) (A) (A) (A) (A)
                 (A) (A) (A) (A) (A) (A) (A) (A) (A) (A) (A) (A)
                 (A) (A) (A) (A) (A) (A) (A) (A) (A) (A) (A) (A)
                 (A) (A) (A) (A) (A) (A) (A) (A) (A) (A) (A) (A)
                 (A) (A) (A) (A) (A) (A) (A) (A) (A) (A) (A)
       Virtual   (A) (A) (A) (A) (A) (A) (A) (A) (A) (A) (A) (A)
                 (A) (A) (A) (A) (A) (A) (A) (A) (A) (A) (A) (A)
                 (A) (A) (A) (A) (A) (A) (A) (A) (A) (A) (A) (A)
                 (A) (A) (A) (A) (A) (A) (A) (A) (A) (A) (A) (A)
                 (A) (A) (A) (A) (A) (A) (A) (A) (A) (A) (A) (A)
                 (A) (A) (A) (A) (A) (A) (A) (A) (A) (A) (A) (A)
                 (A) (A) (A) (A) (A) (A) (A) (A) (A) (A) (A) (A)
                 (A) (A) (A) (A) (A) (A) (A) (A) (A) (A) (A) (A)
                 (A) (A) (A) (A) (A) (A) (A) (A) (A) (A) (A) (A)
                 (A) (A) (A) (A) (A) (A) (A) (A) (A) (A) (A) (A)
                 (A) (A) (A) (A) (A) (A) (A) (A) (A) (A) (A) (A)
                 (A) (A) (A) (A) (A) (A) (A) (A) (A) (A) (A) (A)
                 (A) (A) (A) (A) (A) (A) (A) (A) (A) (A) (A) (A)
                 (A) (A) (A) (A) (A) (A) (A) (A) (A) (A) (A) (A)
                 (A) (A) (A) (A) (A) (A) (A) (A) (A) (A) (A) (A)
                 (A) (A) (A) (A) (A) (A) (A) (A) (A) (A) (A) (A)
                 (A) (A) (A) (A) (A) (A) (A) (A) (A) (A) (A) (A)
                 (A) (A) (A) (A) (A) (A) (A) (A) (A) (A) (A) (A)
                 (A) (A) (A) (A) (A) (A) (A) (A) (A) (A) (A) (A)
                 (A) (A) (A) (A) (A) (A) (A) (A) (A) (A) (A) (A)
                 (A) (A) (A) (A) (A) (A) (A) (A) (A) (A) (A) (A)
                 (A) (A) (A) (A) (A) (A) (A) (A) (A) (A) (A) (A)
                 (A) (A) (A) (A) (A) (A) (A) (A) (A) (A) (A) (A)
                 (A) (A) (A) (A) (A) (A) (A) (A) (A) (A) (A) (A)
                 (A) (A) (A) (A) (A) (A) (A) (A) (A) (A) (A) (A)
                 (A) (A) (A) (A) (A) (A) (A) (A) (A) (A) (A) (A)
                 (A) (A) (A) (A) (A) (A) (A) (A) (A) (A) (A) (A)
                 (A) (A) (A) (A) (A) (A) (A) (A) (A) (A) (A) (A)
                 (A) (A) (A) (A) (A) (A) (A) (A) (A) (A) (A) (A)
                 (A) (A) (A) (A) (A) (A) (A) (A) (A) (A) (A) (A)
                 (A) (A) (A) (A) (A) (A) (A) (A) (A) (A) (A) (A)
                 (A) (A) (A) (A) (A) (A) (A) (A) (A) (A) (A) (A)
                 (A) (A) (A) (A) (A) (A) (A) (A) (A) (A) (A) (A)
 The electronic state is 1-A.
 Alpha  occ. eigenvalues --  -19.28735 -19.27976 -19.24420 -14.45559 -10.39075
 Alpha  occ. eigenvalues --  -10.37212 -10.36108 -10.33627 -10.32248 -10.31826
 Alpha  occ. eigenvalues --  -10.31629 -10.31321 -10.31278 -10.31143 -10.30223
 Alpha  occ. eigenvalues --  -10.26410  -1.18266  -1.17581  -1.12358  -1.06064
 Alpha  occ. eigenvalues --   -0.97945  -0.89704  -0.87251  -0.86258  -0.82636
 Alpha  occ. eigenvalues --   -0.80486  -0.78759  -0.75920  -0.71217  -0.68681
 Alpha  occ. eigenvalues --   -0.65500  -0.63539  -0.62142  -0.60183  -0.59804
 Alpha  occ. eigenvalues --   -0.57845  -0.56729  -0.55932  -0.54790  -0.53863
 Alpha  occ. eigenvalues --   -0.53396  -0.52478  -0.50959  -0.50399  -0.49316
 Alpha  occ. eigenvalues --   -0.49027  -0.48353  -0.47611  -0.46916  -0.46206
 Alpha  occ. eigenvalues --   -0.45734  -0.43825  -0.42782  -0.40459  -0.39787
 Alpha  occ. eigenvalues --   -0.35738  -0.35430  -0.29851  -0.25695
 Alpha virt. eigenvalues --   -0.02470   0.03960   0.04500   0.05293   0.05418
 Alpha virt. eigenvalues --    0.05732   0.06107   0.06729   0.07339   0.07667
 Alpha virt. eigenvalues --    0.08014   0.08451   0.08726   0.09125   0.09404
 Alpha virt. eigenvalues --    0.10176   0.10311   0.10663   0.11042   0.11871
 Alpha virt. eigenvalues --    0.12721   0.12821   0.13783   0.14280   0.15106
 Alpha virt. eigenvalues --    0.15585   0.15722   0.15944   0.16130   0.16351
 Alpha virt. eigenvalues --    0.17001   0.17366   0.17535   0.17782   0.17947
 Alpha virt. eigenvalues --    0.18263   0.18581   0.18669   0.19023   0.19390
 Alpha virt. eigenvalues --    0.19922   0.20250   0.20524   0.20567   0.21086
 Alpha virt. eigenvalues --    0.21482   0.21926   0.22411   0.22696   0.22843
 Alpha virt. eigenvalues --    0.23015   0.23952   0.24166   0.24412   0.24634
 Alpha virt. eigenvalues --    0.24757   0.25229   0.26253   0.27076   0.27168
 Alpha virt. eigenvalues --    0.27324   0.28072   0.28623   0.29087   0.29430
 Alpha virt. eigenvalues --    0.30067   0.30260   0.30786   0.31021   0.31398
 Alpha virt. eigenvalues --    0.32031   0.32483   0.33213   0.33456   0.33849
 Alpha virt. eigenvalues --    0.33997   0.34555   0.34911   0.35165   0.35826
 Alpha virt. eigenvalues --    0.36251   0.36772   0.36949   0.37231   0.37640
 Alpha virt. eigenvalues --    0.38110   0.38122   0.38559   0.39141   0.39777
 Alpha virt. eigenvalues --    0.40542   0.40863   0.40955   0.41298   0.42096
 Alpha virt. eigenvalues --    0.42680   0.43565   0.43880   0.44594   0.44996
 Alpha virt. eigenvalues --    0.46152   0.46252   0.47625   0.48556   0.50255
 Alpha virt. eigenvalues --    0.50798   0.51496   0.52299   0.53013   0.53288
 Alpha virt. eigenvalues --    0.54512   0.54973   0.57563   0.58200   0.58644
 Alpha virt. eigenvalues --    0.58916   0.60537   0.61553   0.62252   0.62638
 Alpha virt. eigenvalues --    0.65460   0.65743   0.66661   0.67859   0.68185
 Alpha virt. eigenvalues --    0.68531   0.68917   0.69416   0.69987   0.71324
 Alpha virt. eigenvalues --    0.71578   0.72059   0.72192   0.72782   0.73705
 Alpha virt. eigenvalues --    0.73833   0.74574   0.74861   0.76367   0.76708
 Alpha virt. eigenvalues --    0.76994   0.78022   0.78355   0.79180   0.80140
 Alpha virt. eigenvalues --    0.80499   0.80924   0.82146   0.83728   0.83954
 Alpha virt. eigenvalues --    0.84796   0.85604   0.86941   0.88045   0.90510
 Alpha virt. eigenvalues --    0.91086   0.92896   0.94409   0.95212   0.96164
 Alpha virt. eigenvalues --    0.97138   0.97880   0.99410   0.99754   1.01253
 Alpha virt. eigenvalues --    1.01688   1.03369   1.03608   1.05144   1.05602
 Alpha virt. eigenvalues --    1.07781   1.09235   1.09321   1.10145   1.10683
 Alpha virt. eigenvalues --    1.11216   1.12288   1.14165   1.14951   1.16448
 Alpha virt. eigenvalues --    1.17070   1.18226   1.18949   1.19940   1.20793
 Alpha virt. eigenvalues --    1.22409   1.23576   1.24839   1.27016   1.28323
 Alpha virt. eigenvalues --    1.29470   1.30201   1.33252   1.35283   1.36066
 Alpha virt. eigenvalues --    1.36792   1.37031   1.39519   1.40752   1.42442
 Alpha virt. eigenvalues --    1.46757   1.47095   1.49850   1.51950   1.52497
 Alpha virt. eigenvalues --    1.52772   1.53828   1.54166   1.55067   1.56498
 Alpha virt. eigenvalues --    1.58088   1.59557   1.60664   1.62667   1.63514
 Alpha virt. eigenvalues --    1.64343   1.64720   1.64974   1.65609   1.66380
 Alpha virt. eigenvalues --    1.67453   1.68476   1.68644   1.70771   1.71387
 Alpha virt. eigenvalues --    1.73620   1.74971   1.75894   1.77224   1.77515
 Alpha virt. eigenvalues --    1.78762   1.79306   1.80558   1.81395   1.81846
 Alpha virt. eigenvalues --    1.82604   1.84553   1.86311   1.86946   1.88296
 Alpha virt. eigenvalues --    1.90107   1.90797   1.92284   1.93056   1.96243
 Alpha virt. eigenvalues --    1.96302   1.97084   1.99208   1.99832   2.02408
 Alpha virt. eigenvalues --    2.03426   2.05242   2.06666   2.07178   2.08081
 Alpha virt. eigenvalues --    2.09306   2.11814   2.12380   2.13125   2.15524
 Alpha virt. eigenvalues --    2.17286   2.18388   2.19158   2.20612   2.21717
 Alpha virt. eigenvalues --    2.23521   2.24039   2.25230   2.27522   2.27951
 Alpha virt. eigenvalues --    2.28044   2.31055   2.34227   2.36702   2.38243
 Alpha virt. eigenvalues --    2.41683   2.43145   2.45178   2.49523   2.51671
 Alpha virt. eigenvalues --    2.52909   2.54404   2.55512   2.56043   2.57401
 Alpha virt. eigenvalues --    2.58316   2.59224   2.61384   2.61988   2.64203
 Alpha virt. eigenvalues --    2.65006   2.66976   2.67720   2.69321   2.70981
 Alpha virt. eigenvalues --    2.71553   2.73746   2.74667   2.74986   2.77018
 Alpha virt. eigenvalues --    2.78682   2.79391   2.80032   2.81222   2.82273
 Alpha virt. eigenvalues --    2.82906   2.84186   2.85410   2.86599   2.88173
 Alpha virt. eigenvalues --    2.90023   2.91659   2.92672   2.95263   2.97756
 Alpha virt. eigenvalues --    2.99874   3.01004   3.02602   3.03832   3.04856
 Alpha virt. eigenvalues --    3.08851   3.09960   3.13101   3.14666   3.15390
 Alpha virt. eigenvalues --    3.16886   3.17572   3.17706   3.19327   3.21605
 Alpha virt. eigenvalues --    3.23868   3.27377   3.30214   3.30454   3.32483
 Alpha virt. eigenvalues --    3.33504   3.35855   3.37911   3.41997   3.46247
 Alpha virt. eigenvalues --    3.48907   3.50062   3.57250   3.59958   3.67031
 Alpha virt. eigenvalues --    3.68952   3.70178   3.74974   3.75547   3.78338
 Alpha virt. eigenvalues --    3.84422   3.84975   3.87060   3.88567   3.91784
 Alpha virt. eigenvalues --    3.93305   3.96359   3.97051   4.02670   4.12854
 Alpha virt. eigenvalues --    4.16136   4.17887   4.20945   4.24025   4.26936
 Alpha virt. eigenvalues --    4.32207   4.36276   4.54046   4.93459   5.00298
 Alpha virt. eigenvalues --    5.12177   5.14371   5.18895   5.19185   5.42509
 Alpha virt. eigenvalues --    5.52928   5.56608   5.82379   5.86712   5.93799
 Alpha virt. eigenvalues --   23.70931  23.96619  24.01118  24.02109  24.06255
 Alpha virt. eigenvalues --   24.07780  24.09309  24.13153  24.16088  24.21297
 Alpha virt. eigenvalues --   24.27664  24.29349  35.72573  50.08934  50.10420
 Alpha virt. eigenvalues --   50.12991
          Condensed to atoms (all electrons):
               1          2          3          4          5          6
     1  C    5.200289   0.390576   0.381608  -0.067007   0.002503   0.234577
     2  H    0.390576   0.474260  -0.026962   0.004619  -0.005926  -0.049440
     3  H    0.381608  -0.026962   0.546052  -0.005209   0.001004  -0.065323
     4  C   -0.067007   0.004619  -0.005209   5.162159   0.411841   0.237334
     5  H    0.002503  -0.005926   0.001004   0.411841   0.566856  -0.057391
     6  N    0.234577  -0.049440  -0.065323   0.237334  -0.057391   6.897572
     7  H    0.439033  -0.010648  -0.047819   0.005974   0.001125  -0.045701
     8  H   -0.003049   0.003961  -0.002396   0.392819  -0.031055  -0.095392
     9  H   -0.000129  -0.004913   0.002384   0.427542  -0.065704  -0.057123
    10  C   -0.357767   0.023084   0.032704  -0.052794  -0.028546   0.281806
    11  H    0.004918  -0.000836   0.001480  -0.024708   0.007059  -0.064144
    12  C    0.441676   0.022194  -0.026258  -0.187086   0.005305  -0.310607
    13  C   -0.132734  -0.013801   0.029641  -0.012467   0.012242  -0.054089
    14  H    0.022363  -0.000430  -0.005536  -0.010348   0.002611  -0.037486
    15  O   -0.004180  -0.000293   0.000029  -0.001859  -0.000027  -0.000788
    16  C   -0.218201  -0.015037   0.028208   0.030450   0.005249  -0.073961
    17  C   -0.042321  -0.002421   0.002764   0.002550   0.000852  -0.019111
    18  C    0.127130   0.007650  -0.022042   0.018905  -0.001030   0.078607
    19  O    0.000251   0.000012   0.000021  -0.000146   0.000000  -0.000182
    20  C    0.001882   0.000112  -0.002595   0.001703   0.000232  -0.007657
    21  C    0.016515   0.000966   0.003455  -0.000947  -0.000830   0.034225
    22  H    0.013691   0.001398  -0.008505   0.000429  -0.000610   0.012305
    23  H   -0.000465  -0.000044  -0.000027   0.000159  -0.000018   0.000943
    24  H   -0.000029  -0.000001  -0.000019  -0.000017   0.000000  -0.000008
    25  C   -0.004362  -0.000328   0.003434   0.001261  -0.000015   0.000089
    26  H   -0.000041  -0.000004   0.000039   0.000040   0.000003  -0.000005
    27  O    0.000030   0.000003   0.000072  -0.000032   0.000005   0.000099
    28  C   -0.000165  -0.000011  -0.000002   0.000004   0.000005   0.000051
    29  H   -0.000005  -0.000001   0.000004   0.000006  -0.000005   0.000023
    30  H   -0.000009  -0.000001   0.000001   0.000002   0.000002  -0.000022
    31  H   -0.000016  -0.000001   0.000003  -0.000009   0.000001  -0.000007
               7          8          9         10         11         12
     1  C    0.439033  -0.003049  -0.000129  -0.357767   0.004918   0.441676
     2  H   -0.010648   0.003961  -0.004913   0.023084  -0.000836   0.022194
     3  H   -0.047819  -0.002396   0.002384   0.032704   0.001480  -0.026258
     4  C    0.005974   0.392819   0.427542  -0.052794  -0.024708  -0.187086
     5  H    0.001125  -0.031055  -0.065704  -0.028546   0.007059   0.005305
     6  N   -0.045701  -0.095392  -0.057123   0.281806  -0.064144  -0.310607
     7  H    0.517736  -0.001058  -0.000241  -0.012894  -0.004040   0.036462
     8  H   -0.001058   0.542590  -0.021954   0.089133  -0.009591  -0.000653
     9  H   -0.000241  -0.021954   0.560904  -0.008288  -0.001371  -0.004759
    10  C   -0.012894   0.089133  -0.008288   8.426762   0.237170  -2.304554
    11  H   -0.004040  -0.009591  -0.001371   0.237170   0.504001   0.138281
    12  C    0.036462  -0.000653  -0.004759  -2.304554   0.138281  17.563567
    13  C   -0.060285  -0.009361  -0.004952  -0.761943   0.061977   0.625917
    14  H   -0.006381  -0.002186  -0.001830  -0.222962   0.020238   0.645178
    15  O   -0.000610   0.001409  -0.000013  -0.008701  -0.006319  -0.630732
    16  C   -0.001950  -0.005079   0.002009   1.401110   0.035769  -6.539134
    17  C    0.001038  -0.001290   0.000453   0.193819   0.037617  -2.245270
    18  C    0.000724   0.002254  -0.002462  -0.322490  -0.089731  -0.085003
    19  O   -0.000119   0.000067  -0.000008  -0.006406  -0.001161   0.004730
    20  C   -0.000245  -0.001325   0.000097  -0.174028   0.018091  -1.373615
    21  C   -0.000228   0.003975  -0.000727   0.120663  -0.041693   0.854808
    22  H    0.000838   0.000608  -0.000036  -0.079553  -0.006326   0.054927
    23  H    0.000223   0.000108   0.000018   0.008478  -0.002096   0.001898
    24  H    0.000001   0.000006   0.000000  -0.001770  -0.000020  -0.007819
    25  C    0.000254   0.000363  -0.000039   0.183281  -0.000968  -0.313525
    26  H    0.000003  -0.000010   0.000000   0.002697   0.000068  -0.006422
    27  O    0.000002   0.000012  -0.000001   0.000555  -0.000246  -0.012284
    28  C    0.000012  -0.000018   0.000003  -0.000827   0.000066  -0.000737
    29  H   -0.000001   0.000009   0.000000  -0.000088  -0.000070  -0.000214
    30  H    0.000002  -0.000007   0.000000  -0.000125   0.000058   0.000154
    31  H    0.000002   0.000003   0.000000   0.000355  -0.000014  -0.001357
              13         14         15         16         17         18
     1  C   -0.132734   0.022363  -0.004180  -0.218201  -0.042321   0.127130
     2  H   -0.013801  -0.000430  -0.000293  -0.015037  -0.002421   0.007650
     3  H    0.029641  -0.005536   0.000029   0.028208   0.002764  -0.022042
     4  C   -0.012467  -0.010348  -0.001859   0.030450   0.002550   0.018905
     5  H    0.012242   0.002611  -0.000027   0.005249   0.000852  -0.001030
     6  N   -0.054089  -0.037486  -0.000788  -0.073961  -0.019111   0.078607
     7  H   -0.060285  -0.006381  -0.000610  -0.001950   0.001038   0.000724
     8  H   -0.009361  -0.002186   0.001409  -0.005079  -0.001290   0.002254
     9  H   -0.004952  -0.001830  -0.000013   0.002009   0.000453  -0.002462
    10  C   -0.761943  -0.222962  -0.008701   1.401110   0.193819  -0.322490
    11  H    0.061977   0.020238  -0.006319   0.035769   0.037617  -0.089731
    12  C    0.625917   0.645178  -0.630732  -6.539134  -2.245270  -0.085003
    13  C   14.326740   0.050206   0.808683  -1.230020   1.025486  -3.964535
    14  H    0.050206   0.503118   0.007754  -0.062837   0.009535  -0.099698
    15  O    0.808683   0.007754   8.162103   0.000154   0.104410  -0.080690
    16  C   -1.230020  -0.062837   0.000154  19.165641  -0.270874  -3.575074
    17  C    1.025486   0.009535   0.104410  -0.270874  26.967134 -10.540489
    18  C   -3.964535  -0.099698  -0.080690  -3.575074 -10.540489  22.558134
    19  O   -0.092830   0.000574  -0.025416   0.184885   0.186930   0.125152
    20  C   -3.566805   0.020675  -0.115108  -1.204646  -9.104668   5.925634
    21  C   -0.489133  -0.049844   0.007667  -3.946102  -0.310773   0.645797
    22  H   -0.123976  -0.002259  -0.002699  -0.496335  -0.188971   1.073058
    23  H    0.001454  -0.002249   0.086604  -0.197472   0.139788  -0.008017
    24  H   -0.025048   0.000014  -0.000049  -0.108279  -0.266691   0.086718
    25  C   -0.724166  -0.019458   0.006253   1.741341   0.509847  -4.344525
    26  H   -0.002267  -0.000235   0.000009   0.124193   0.088549  -0.147879
    27  O   -0.004778  -0.000682  -0.000084   0.067921   0.066480  -0.159988
    28  C   -0.010052   0.000194   0.000137  -0.036025   0.066195  -0.013350
    29  H   -0.000880  -0.000049  -0.000007  -0.015901   0.005276   0.002791
    30  H   -0.000440   0.000068   0.000016   0.003600  -0.007773  -0.007060
    31  H   -0.001348  -0.000059  -0.000002   0.000908   0.003113   0.042306
              19         20         21         22         23         24
     1  C    0.000251   0.001882   0.016515   0.013691  -0.000465  -0.000029
     2  H    0.000012   0.000112   0.000966   0.001398  -0.000044  -0.000001
     3  H    0.000021  -0.002595   0.003455  -0.008505  -0.000027  -0.000019
     4  C   -0.000146   0.001703  -0.000947   0.000429   0.000159  -0.000017
     5  H    0.000000   0.000232  -0.000830  -0.000610  -0.000018   0.000000
     6  N   -0.000182  -0.007657   0.034225   0.012305   0.000943  -0.000008
     7  H   -0.000119  -0.000245  -0.000228   0.000838   0.000223   0.000001
     8  H    0.000067  -0.001325   0.003975   0.000608   0.000108   0.000006
     9  H   -0.000008   0.000097  -0.000727  -0.000036   0.000018   0.000000
    10  C   -0.006406  -0.174028   0.120663  -0.079553   0.008478  -0.001770
    11  H   -0.001161   0.018091  -0.041693  -0.006326  -0.002096  -0.000020
    12  C    0.004730  -1.373615   0.854808   0.054927   0.001898  -0.007819
    13  C   -0.092830  -3.566805  -0.489133  -0.123976   0.001454  -0.025048
    14  H    0.000574   0.020675  -0.049844  -0.002259  -0.002249   0.000014
    15  O   -0.025416  -0.115108   0.007667  -0.002699   0.086604  -0.000049
    16  C    0.184885  -1.204646  -3.946102  -0.496335  -0.197472  -0.108279
    17  C    0.186930  -9.104668  -0.310773  -0.188971   0.139788  -0.266691
    18  C    0.125152   5.925634   0.645797   1.073058  -0.008017   0.086718
    19  O    8.089303  -0.392933  -0.004536   0.000593   0.243169  -0.027960
    20  C   -0.392933  20.474944  -2.860445   0.165717   0.022240   0.654496
    21  C   -0.004536  -2.860445  13.838698   0.101026   0.030101   0.045018
    22  H    0.000593   0.165717   0.101026   0.500473   0.001023   0.003556
    23  H    0.243169   0.022240   0.030101   0.001023   0.365997   0.002068
    24  H   -0.027960   0.654496   0.045018   0.003556   0.002068   0.443173
    25  C    0.001400  -1.833954  -1.361389  -0.253864  -0.008845  -0.054636
    26  H    0.001777  -0.203474  -0.220782  -0.008749  -0.000338  -0.015450
    27  O    0.000348   0.008196  -0.100855  -0.038303   0.000338  -0.000668
    28  C   -0.001031  -0.257636   0.252604   0.005124   0.000072   0.003859
    29  H    0.000051   0.009027  -0.011541   0.000898   0.000052   0.000559
    30  H   -0.000039  -0.006636   0.039678  -0.000532  -0.000021   0.000153
    31  H    0.000049   0.001032  -0.037833  -0.001331   0.000026   0.000568
              25         26         27         28         29         30
     1  C   -0.004362  -0.000041   0.000030  -0.000165  -0.000005  -0.000009
     2  H   -0.000328  -0.000004   0.000003  -0.000011  -0.000001  -0.000001
     3  H    0.003434   0.000039   0.000072  -0.000002   0.000004   0.000001
     4  C    0.001261   0.000040  -0.000032   0.000004   0.000006   0.000002
     5  H   -0.000015   0.000003   0.000005   0.000005  -0.000005   0.000002
     6  N    0.000089  -0.000005   0.000099   0.000051   0.000023  -0.000022
     7  H    0.000254   0.000003   0.000002   0.000012  -0.000001   0.000002
     8  H    0.000363  -0.000010   0.000012  -0.000018   0.000009  -0.000007
     9  H   -0.000039   0.000000  -0.000001   0.000003   0.000000   0.000000
    10  C    0.183281   0.002697   0.000555  -0.000827  -0.000088  -0.000125
    11  H   -0.000968   0.000068  -0.000246   0.000066  -0.000070   0.000058
    12  C   -0.313525  -0.006422  -0.012284  -0.000737  -0.000214   0.000154
    13  C   -0.724166  -0.002267  -0.004778  -0.010052  -0.000880  -0.000440
    14  H   -0.019458  -0.000235  -0.000682   0.000194  -0.000049   0.000068
    15  O    0.006253   0.000009  -0.000084   0.000137  -0.000007   0.000016
    16  C    1.741341   0.124193   0.067921  -0.036025  -0.015901   0.003600
    17  C    0.509847   0.088549   0.066480   0.066195   0.005276  -0.007773
    18  C   -4.344525  -0.147879  -0.159988  -0.013350   0.002791  -0.007060
    19  O    0.001400   0.001777   0.000348  -0.001031   0.000051  -0.000039
    20  C   -1.833954  -0.203474   0.008196  -0.257636   0.009027  -0.006636
    21  C   -1.361389  -0.220782  -0.100855   0.252604  -0.011541   0.039678
    22  H   -0.253864  -0.008749  -0.038303   0.005124   0.000898  -0.000532
    23  H   -0.008845  -0.000338   0.000338   0.000072   0.000052  -0.000021
    24  H   -0.054636  -0.015450  -0.000668   0.003859   0.000559   0.000153
    25  C   11.518537   0.708247   0.087569  -0.253335  -0.007335   0.017846
    26  H    0.708247   0.460417  -0.011897  -0.008598  -0.007530   0.003050
    27  O    0.087569  -0.011897   8.214463   0.181007  -0.035457  -0.062198
    28  C   -0.253335  -0.008598   0.181007   5.250556   0.404031   0.394656
    29  H   -0.007335  -0.007530  -0.035457   0.404031   0.561944  -0.021106
    30  H    0.017846   0.003050  -0.062198   0.394656  -0.021106   0.449369
    31  H   -0.026800  -0.007665  -0.035639   0.407562  -0.062268  -0.019264
              31
     1  C   -0.000016
     2  H   -0.000001
     3  H    0.000003
     4  C   -0.000009
     5  H    0.000001
     6  N   -0.000007
     7  H    0.000002
     8  H    0.000003
     9  H    0.000000
    10  C    0.000355
    11  H   -0.000014
    12  C   -0.001357
    13  C   -0.001348
    14  H   -0.000059
    15  O   -0.000002
    16  C    0.000908
    17  C    0.003113
    18  C    0.042306
    19  O    0.000049
    20  C    0.001032
    21  C   -0.037833
    22  H   -0.001331
    23  H    0.000026
    24  H    0.000568
    25  C   -0.026800
    26  H   -0.007665
    27  O   -0.035639
    28  C    0.407562
    29  H   -0.062268
    30  H   -0.019264
    31  H    0.558321
 Mulliken charges:
               1
     1  C   -0.446564
     2  H    0.202263
     3  H    0.179791
     4  C   -0.335167
     5  H    0.174261
     6  N    0.160803
     7  H    0.188789
     8  H    0.147107
     9  H    0.181141
    10  C   -0.657881
    11  H    0.186540
    12  C   -0.345068
    13  C    0.343561
    14  H    0.242001
    15  O   -0.307652
    16  C    1.205488
    17  C   -0.411186
    18  C   -1.230798
    19  O   -0.286547
    20  C   -0.198305
    21  C   -0.557538
    22  H    0.276388
    23  H    0.314832
    24  H    0.268277
    25  C    0.427822
    26  H    0.252251
    27  O   -0.163985
    28  C   -0.384352
    29  H    0.177785
    30  H    0.216580
    31  H    0.179363
 Sum of Mulliken charges =   0.00000
 Mulliken charges with hydrogens summed into heavy atoms:
               1
     1  C    0.124279
     4  C    0.167341
     6  N    0.160803
    10  C   -0.471341
    12  C   -0.103067
    13  C    0.343561
    15  O   -0.307652
    16  C    1.205488
    17  C   -0.411186
    18  C   -0.954410
    19  O    0.028286
    20  C    0.069972
    21  C   -0.557538
    25  C    0.680073
    27  O   -0.163985
    28  C    0.189376
 Electronic spatial extent (au):  <R**2>=           5077.5360
 Charge=              0.0000 electrons
 Dipole moment (field-independent basis, Debye):
    X=             -0.2369    Y=             -6.0806    Z=              1.0232  Tot=              6.1707
 Quadrupole moment (field-independent basis, Debye-Ang):
   XX=            -58.6250   YY=           -106.4101   ZZ=            -92.7707
   XY=             -1.9826   XZ=              0.3656   YZ=             -0.4301
 Traceless Quadrupole moment (field-independent basis, Debye-Ang):
   XX=             27.3103   YY=            -20.4748   ZZ=             -6.8355
   XY=             -1.9826   XZ=              0.3656   YZ=             -0.4301
 Octapole moment (field-independent basis, Debye-Ang**2):
  XXX=             -4.2805  YYY=            -56.0516  ZZZ=              2.7538  XYY=            -14.1501
  XXY=            -75.3467  XXZ=             14.2601  XZZ=             19.4434  YZZ=             -3.0396
  YYZ=              1.9560  XYZ=              1.8708
 Hexadecapole moment (field-independent basis, Debye-Ang**3):
 XXXX=          -3860.3078 YYYY=          -1661.4430 ZZZZ=           -318.7273 XXXY=              3.1935
 XXXZ=            -16.5018 YYYX=             92.8384 YYYZ=             -1.6336 ZZZX=             12.6320
 ZZZY=             -4.2216 XXYY=           -968.9207 XXZZ=           -814.1017 YYZZ=           -327.5947
 XXYZ=             -0.2331 YYXZ=              5.7340 ZZXY=             -0.1273
 N-N= 1.055525241812D+03 E-N=-3.853935212849D+03  KE= 7.436213126948D+02
 D1PCM: PCM CHGder 1st derivatives, ID1Alg=3 FixD1E=F DoIter=F DoCFld=F I1PDM=6.
 Calling FoFJK, ICntrl=  10005127 FMM=F ISym2X=0 I1Cent= 0 IOpClX= 0 NMat=1 NMatS=1 NMatT=0.
 ***** Axes restored to original set *****
 -------------------------------------------------------------------
 Center     Atomic                   Forces (Hartrees/Bohr)
 Number     Number              X              Y              Z
 -------------------------------------------------------------------
      1        6           0.001567102    0.001100575    0.003253408
      2        1           0.000215054    0.000160441   -0.000837379
      3        1          -0.000797995   -0.000265304   -0.000431655
      4        6          -0.003045008   -0.002475756   -0.001012785
      5        1           0.000690437    0.001381619   -0.000037131
      6        7           0.005417530    0.004560721   -0.010852823
      7        1          -0.000401648   -0.000646533   -0.000128851
      8        1           0.000197281    0.000201153    0.000147433
      9        1           0.001351929    0.000468295   -0.000031603
     10        6          -0.008974051   -0.008526704    0.009137698
     11        1          -0.000426746   -0.000914370    0.000555181
     12        6           0.008200158    0.001100894   -0.001444307
     13        6          -0.005872769   -0.003098392    0.014827102
     14        1           0.000277998   -0.000278959    0.000077168
     15        8          -0.001132479    0.008233249   -0.009549763
     16        6           0.002735632   -0.000435732   -0.004355680
     17        6           0.003775521   -0.005817089    0.002425974
     18        6          -0.002066395    0.001966318    0.001000691
     19        8          -0.001849879    0.004312548   -0.003263466
     20        6          -0.001022719    0.001114756    0.000135091
     21        6           0.001748079   -0.000666530   -0.002063813
     22        1          -0.001009359    0.000393038    0.000783490
     23        1          -0.001430570   -0.000629517    0.003101967
     24        1           0.000554630   -0.000282460   -0.000645711
     25        6           0.001399879   -0.001588945   -0.000011281
     26        1          -0.000014617   -0.000038888    0.000026731
     27        8          -0.003181771    0.002752447    0.001579739
     28        6           0.003415174   -0.002189705   -0.002870101
     29        1           0.000136165    0.000170007    0.000590699
     30        1          -0.000028310    0.000241574   -0.000364523
     31        1          -0.000428252   -0.000302750    0.000258499
 -------------------------------------------------------------------
 Cartesian Forces:  Max     0.014827102 RMS     0.003494754

 GradGradGradGradGradGradGradGradGradGradGradGradGradGradGradGradGradGrad
 Berny optimization.
 FormGI is forming the generalized inverse of G from B-inverse, IUseBI=4.
 Internal  Forces:  Max     0.014223015 RMS     0.002292298
 Search for a local minimum.
 Step number   1 out of a maximum of  150
 All quantities printed in internal units (Hartrees-Bohrs-Radians)
 Mixed Optimization -- RFO/linear search
 Second derivative matrix not updated -- first step.
 ITU=  0
     Eigenvalues ---    0.00945   0.00979   0.01251   0.01403   0.01617
     Eigenvalues ---    0.01665   0.01858   0.01865   0.01926   0.01930
     Eigenvalues ---    0.02073   0.02085   0.02103   0.02132   0.02168
     Eigenvalues ---    0.02198   0.02211   0.02243   0.02264   0.02275
     Eigenvalues ---    0.02450   0.02631   0.07440   0.07549   0.07576
     Eigenvalues ---    0.07645   0.10077   0.10672   0.15778   0.15999
     Eigenvalues ---    0.16000   0.16000   0.16000   0.16000   0.16000
     Eigenvalues ---    0.16000   0.16000   0.16000   0.16000   0.16000
     Eigenvalues ---    0.16000   0.16000   0.16000   0.22000   0.22052
     Eigenvalues ---    0.22374   0.23491   0.24588   0.24991   0.24997
     Eigenvalues ---    0.25000   0.25000   0.25000   0.25000   0.25000
     Eigenvalues ---    0.25000   0.34021   0.34025   0.34489   0.34493
     Eigenvalues ---    0.34521   0.34571   0.34845   0.34978   0.34989
     Eigenvalues ---    0.34990   0.35491   0.35518   0.35533   0.35840
     Eigenvalues ---    0.36549   0.37412   0.37740   0.39825   0.41606
     Eigenvalues ---    0.43641   0.44693   0.44759   0.45237   0.46981
     Eigenvalues ---    0.48030   0.49052   0.50926   0.52932   0.53294
     Eigenvalues ---    0.59741   0.67227
 RFO step:  Lambda=-2.34784391D-03 EMin= 9.45070398D-03
 Linear search not attempted -- first point.
 Iteration  1 RMS(Cart)=  0.04852553 RMS(Int)=  0.00050481
 Iteration  2 RMS(Cart)=  0.00090393 RMS(Int)=  0.00006096
 Iteration  3 RMS(Cart)=  0.00000021 RMS(Int)=  0.00006095
 Variable       Old X    -DE/DX   Delta X   Delta X   Delta X     New X
                                 (Linear)    (Quad)   (Total)
    R1        2.05690  -0.00081   0.00000  -0.00230  -0.00230   2.05460
    R2        2.06459  -0.00073   0.00000  -0.00210  -0.00210   2.06249
    R3        2.75229   0.00192   0.00000   0.00511   0.00511   2.75740
    R4        2.06377  -0.00063   0.00000  -0.00181  -0.00181   2.06196
    R5        2.06507  -0.00093   0.00000  -0.00267  -0.00267   2.06240
    R6        2.74746   0.00083   0.00000   0.00219   0.00219   2.74964
    R7        2.05693  -0.00024   0.00000  -0.00069  -0.00069   2.05624
    R8        2.06512  -0.00088   0.00000  -0.00254  -0.00254   2.06258
    R9        2.51146  -0.01198   0.00000  -0.01998  -0.01998   2.49148
   R10        2.04886   0.00009   0.00000   0.00026   0.00026   2.04912
   R11        2.61907   0.00633   0.00000   0.01312   0.01312   2.63219
   R12        2.76531  -0.00102   0.00000  -0.00279  -0.00279   2.76253
   R13        2.05710   0.00006   0.00000   0.00016   0.00016   2.05726
   R14        2.45641   0.00817   0.00000   0.01210   0.01210   2.46852
   R15        2.66886   0.00456   0.00000   0.01040   0.01040   2.67926
   R16        2.69539  -0.00229   0.00000  -0.00581  -0.00581   2.68958
   R17        2.66337  -0.00197   0.00000  -0.00463  -0.00463   2.65874
   R18        2.56680   0.00475   0.00000   0.00888   0.00888   2.57568
   R19        2.60150   0.00066   0.00000   0.00120   0.00120   2.60270
   R20        2.62403   0.00353   0.00000   0.00752   0.00752   2.63155
   R21        2.04842   0.00060   0.00000   0.00169   0.00169   2.05011
   R22        1.83717   0.00307   0.00000   0.00577   0.00577   1.84294
   R23        2.04819   0.00051   0.00000   0.00141   0.00141   2.04960
   R24        2.64903   0.00112   0.00000   0.00264   0.00264   2.65166
   R25        2.62884  -0.00040   0.00000  -0.00054  -0.00054   2.62830
   R26        2.58942  -0.00084   0.00000  -0.00164  -0.00164   2.58778
   R27        2.04332  -0.00002   0.00000  -0.00004  -0.00004   2.04328
   R28        2.65634   0.00440   0.00000   0.00979   0.00979   2.66613
   R29        2.07295  -0.00061   0.00000  -0.00177  -0.00177   2.07118
   R30        2.05927  -0.00038   0.00000  -0.00107  -0.00107   2.05819
   R31        2.07288  -0.00057   0.00000  -0.00166  -0.00166   2.07122
    A1        1.90055   0.00036   0.00000   0.00140   0.00139   1.90193
    A2        1.90058  -0.00041   0.00000  -0.00323  -0.00324   1.89734
    A3        1.90127   0.00020   0.00000   0.00071   0.00071   1.90198
    A4        1.93283  -0.00062   0.00000  -0.00354  -0.00354   1.92929
    A5        1.90495   0.00064   0.00000   0.00525   0.00525   1.91020
    A6        1.92325  -0.00016   0.00000  -0.00053  -0.00053   1.92272
    A7        1.92160  -0.00155   0.00000  -0.01037  -0.01041   1.91119
    A8        1.90199   0.00085   0.00000   0.00667   0.00668   1.90867
    A9        1.90199   0.00092   0.00000   0.00264   0.00255   1.90454
   A10        1.91665   0.00041   0.00000   0.00410   0.00410   1.92075
   A11        1.91879  -0.00136   0.00000  -0.00913  -0.00917   1.90962
   A12        1.90257   0.00078   0.00000   0.00639   0.00639   1.90896
   A13        2.04975  -0.00031   0.00000  -0.00122  -0.00122   2.04853
   A14        2.11622   0.00107   0.00000   0.00424   0.00424   2.12047
   A15        2.11720  -0.00077   0.00000  -0.00304  -0.00304   2.11416
   A16        2.02240  -0.00015   0.00000  -0.00250  -0.00251   2.01989
   A17        2.19954  -0.00190   0.00000  -0.00857  -0.00857   2.19097
   A18        2.06115   0.00204   0.00000   0.01098   0.01097   2.07212
   A19        2.08300   0.00079   0.00000   0.00515   0.00490   2.08790
   A20        2.09775  -0.00032   0.00000   0.00135   0.00110   2.09886
   A21        2.08187  -0.00029   0.00000   0.00121   0.00096   2.08283
   A22        1.80010   0.01422   0.00000   0.05622   0.05616   1.85626
   A23        2.23565  -0.00477   0.00000  -0.01904  -0.01908   2.21656
   A24        2.24691  -0.00947   0.00000  -0.03771  -0.03774   2.20916
   A25        2.09905  -0.00097   0.00000  -0.00346  -0.00346   2.09559
   A26        2.12382   0.00095   0.00000   0.00416   0.00416   2.12798
   A27        2.06023   0.00002   0.00000  -0.00068  -0.00068   2.05955
   A28        2.11581  -0.00398   0.00000  -0.01542  -0.01542   2.10039
   A29        2.08934   0.00155   0.00000   0.00545   0.00546   2.09480
   A30        2.07803   0.00243   0.00000   0.00996   0.00996   2.08799
   A31        2.11753  -0.00039   0.00000  -0.00168  -0.00169   2.11584
   A32        2.10169  -0.00101   0.00000  -0.00659  -0.00659   2.09510
   A33        2.06396   0.00140   0.00000   0.00828   0.00828   2.07224
   A34        1.89240  -0.00298   0.00000  -0.01833  -0.01833   1.87407
   A35        2.06419   0.00107   0.00000   0.00596   0.00595   2.07014
   A36        2.12253  -0.00064   0.00000  -0.00262  -0.00261   2.11991
   A37        2.09647  -0.00044   0.00000  -0.00334  -0.00334   2.09313
   A38        2.09591   0.00034   0.00000   0.00231   0.00231   2.09823
   A39        2.01631   0.00031   0.00000   0.00074   0.00074   2.01705
   A40        2.17096  -0.00065   0.00000  -0.00306  -0.00306   2.16791
   A41        2.08081  -0.00088   0.00000  -0.00278  -0.00278   2.07803
   A42        2.07681   0.00048   0.00000   0.00163   0.00163   2.07844
   A43        2.12557   0.00040   0.00000   0.00115   0.00115   2.12672
   A44        2.05541   0.00074   0.00000   0.00295   0.00295   2.05835
   A45        1.94929  -0.00021   0.00000  -0.00139  -0.00139   1.94789
[...]
 Alpha virt. eigenvalues --    2.23808   2.24208   2.24902   2.27352   2.27497
 Alpha virt. eigenvalues --    2.28551   2.30451   2.33575   2.36020   2.38053
 Alpha virt. eigenvalues --    2.41657   2.42753   2.44605   2.50084   2.51954
 Alpha virt. eigenvalues --    2.52812   2.54319   2.55753   2.56210   2.57711
 Alpha virt. eigenvalues --    2.58620   2.59158   2.61055   2.61882   2.63988
 Alpha virt. eigenvalues --    2.65103   2.66714   2.67672   2.69100   2.71213
 Alpha virt. eigenvalues --    2.72181   2.73692   2.74622   2.74779   2.76634
 Alpha virt. eigenvalues --    2.78133   2.79332   2.79713   2.80597   2.82133
 Alpha virt. eigenvalues --    2.83049   2.84643   2.85238   2.86862   2.88350
 Alpha virt. eigenvalues --    2.89832   2.92023   2.92643   2.95430   2.97463
 Alpha virt. eigenvalues --    2.99536   3.00367   3.02659   3.03318   3.04853
 Alpha virt. eigenvalues --    3.09538   3.10687   3.14140   3.14554   3.16234
 Alpha virt. eigenvalues --    3.16980   3.17910   3.19150   3.19771   3.20826
 Alpha virt. eigenvalues --    3.23631   3.26754   3.29802   3.30187   3.31924
 Alpha virt. eigenvalues --    3.33263   3.35383   3.36615   3.42103   3.46577
 Alpha virt. eigenvalues --    3.48678   3.49955   3.56403   3.60249   3.67095
 Alpha virt. eigenvalues --    3.68533   3.70242   3.74849   3.75371   3.78656
 Alpha virt. eigenvalues --    3.84007   3.85072   3.87269   3.89033   3.91575
 Alpha virt. eigenvalues --    3.93265   3.96085   3.96689   4.02048   4.13071
 Alpha virt. eigenvalues --    4.16406   4.17677   4.20650   4.24140   4.27018
 Alpha virt. eigenvalues --    4.32256   4.36496   4.53508   4.93615   4.98710
 Alpha virt. eigenvalues --    5.12604   5.14454   5.18469   5.19015   5.39348
 Alpha virt. eigenvalues --    5.52760   5.57680   5.82453   5.85697   5.93151
 Alpha virt. eigenvalues --   23.71248  23.96767  24.01277  24.02710  24.06254
 Alpha virt. eigenvalues --   24.07815  24.09126  24.10366  24.16706  24.20982
 Alpha virt. eigenvalues --   24.24769  24.29271  35.73153  50.08642  50.10346
 Alpha virt. eigenvalues --   50.13633
          Condensed to atoms (all electrons):
               1          2          3          4          5          6
     1  C    5.196458   0.384154   0.386661  -0.068794   0.005618   0.246298
     2  H    0.384154   0.466989  -0.023627   0.003674  -0.004497  -0.048433
     3  H    0.386661  -0.023627   0.539260  -0.009584   0.000562  -0.068695
     4  C   -0.068794   0.003674  -0.009584   5.181495   0.404913   0.248954
     5  H    0.005618  -0.004497   0.000562   0.404913   0.562379  -0.059139
     6  N    0.246298  -0.048433  -0.068695   0.248954  -0.059139   6.898939
     7  H    0.438695  -0.010036  -0.048261   0.012701   0.000885  -0.035202
     8  H   -0.001180   0.004190  -0.002985   0.393360  -0.031346  -0.094378
     9  H   -0.004990  -0.006821   0.003466   0.431161  -0.064603  -0.052600
    10  C   -0.306289   0.034867   0.016957  -0.042633  -0.030533   0.287013
    11  H    0.003245  -0.000685   0.001969  -0.029657   0.008497  -0.072181
    12  C    0.338113   0.008890   0.001172  -0.166786   0.012838  -0.304759
    13  C   -0.137458  -0.008801   0.027310  -0.054991   0.010836  -0.095827
    14  H    0.015218  -0.001655  -0.002883  -0.012805   0.002928  -0.041071
    15  O   -0.001760  -0.000068  -0.000354  -0.002943  -0.000050  -0.005581
    16  C   -0.206180  -0.010609   0.021996   0.012888   0.004365  -0.104965
    17  C   -0.028231  -0.001172   0.002637  -0.000451   0.000686  -0.018459
    18  C    0.135923   0.005914  -0.024426   0.016859  -0.000058   0.084263
    19  O    0.000238   0.000010  -0.000020  -0.000171   0.000000  -0.000178
    20  C   -0.000113   0.000067  -0.003361  -0.001748   0.000420  -0.015083
    21  C    0.026652   0.001177   0.004534   0.007827  -0.001426   0.054189
    22  H    0.017636   0.001571  -0.013412   0.000369  -0.000537   0.018344
    23  H   -0.000313  -0.000043  -0.000013   0.000244  -0.000016   0.001146
    24  H   -0.000016   0.000000  -0.000029  -0.000020   0.000001  -0.000023
    25  C   -0.002814  -0.000272   0.005608   0.002120  -0.000215   0.003411
    26  H   -0.000028  -0.000003   0.000072   0.000040   0.000002   0.000022
    27  O   -0.000147  -0.000009   0.000256  -0.000049   0.000011   0.000111
    28  C   -0.000197  -0.000014  -0.000019   0.000052   0.000012   0.000160
    29  H   -0.000008  -0.000001   0.000006   0.000018  -0.000009   0.000031
    30  H   -0.000001   0.000001   0.000010   0.000001   0.000002  -0.000005
    31  H   -0.000032  -0.000002   0.000008  -0.000011   0.000002  -0.000019
               7          8          9         10         11         12
     1  C    0.438695  -0.001180  -0.004990  -0.306289   0.003245   0.338113
     2  H   -0.010036   0.004190  -0.006821   0.034867  -0.000685   0.008890
     3  H   -0.048261  -0.002985   0.003466   0.016957   0.001969   0.001172
     4  C    0.012701   0.393360   0.431161  -0.042633  -0.029657  -0.166786
     5  H    0.000885  -0.031346  -0.064603  -0.030533   0.008497   0.012838
     6  N   -0.035202  -0.094378  -0.052600   0.287013  -0.072181  -0.304759
     7  H    0.512757  -0.000685  -0.000765  -0.010764  -0.004661   0.005511
     8  H   -0.000685   0.539489  -0.020321   0.088801  -0.011400   0.000043
     9  H   -0.000765  -0.020321   0.554026  -0.007732  -0.001925  -0.008759
    10  C   -0.010764   0.088801  -0.007732   8.294265   0.230500  -1.807776
    11  H   -0.004661  -0.011400  -0.001925   0.230500   0.502612   0.127830
    12  C    0.005511   0.000043  -0.008759  -1.807776   0.127830  14.181355
    13  C   -0.046447  -0.008864  -0.002352  -0.662223   0.072293   0.854679
    14  H   -0.007179  -0.002214  -0.002024  -0.200963   0.021142   0.596850
    15  O    0.000557   0.000840   0.000051  -0.073749  -0.003798  -0.355055
    16  C   -0.003444  -0.009082   0.003426   0.849152   0.061428  -5.451071
    17  C   -0.000372  -0.001843   0.000483   0.016042   0.034470  -1.435287
    18  C    0.008055   0.005000  -0.003926  -0.091278  -0.096324   0.446436
    19  O   -0.000067   0.000065  -0.000006  -0.010018  -0.000968   0.010942
    20  C    0.001134  -0.001632   0.000045  -0.197206   0.029727  -1.059200
    21  C   -0.001209   0.004814  -0.000848   0.203302  -0.053538   0.360707
    22  H    0.002882   0.001310  -0.000317  -0.065717  -0.009104   0.064525
    23  H    0.000143   0.000122   0.000007   0.011236  -0.002760   0.003046
    24  H    0.000005   0.000006  -0.000001  -0.001534   0.000005  -0.006585
    25  C   -0.000398   0.000345  -0.000014   0.149755  -0.002779  -0.109399
    26  H   -0.000004  -0.000011   0.000000   0.002016   0.000044  -0.002188
    27  O    0.000019   0.000022  -0.000004   0.002172  -0.000272  -0.016310
    28  C    0.000005  -0.000022   0.000003  -0.001274  -0.000029  -0.001100
    29  H   -0.000003   0.000008   0.000001  -0.000177  -0.000063  -0.000540
    30  H    0.000001  -0.000008   0.000000  -0.000213   0.000049   0.000864
    31  H    0.000003   0.000004   0.000000   0.000528  -0.000008  -0.002064
              13         14         15         16         17         18
     1  C   -0.137458   0.015218  -0.001760  -0.206180  -0.028231   0.135923
     2  H   -0.008801  -0.001655  -0.000068  -0.010609  -0.001172   0.005914
     3  H    0.027310  -0.002883  -0.000354   0.021996   0.002637  -0.024426
     4  C   -0.054991  -0.012805  -0.002943   0.012888  -0.000451   0.016859
     5  H    0.010836   0.002928  -0.000050   0.004365   0.000686  -0.000058
     6  N   -0.095827  -0.041071  -0.005581  -0.104965  -0.018459   0.084263
     7  H   -0.046447  -0.007179   0.000557  -0.003444  -0.000372   0.008055
     8  H   -0.008864  -0.002214   0.000840  -0.009082  -0.001843   0.005000
     9  H   -0.002352  -0.002024   0.000051   0.003426   0.000483  -0.003926
    10  C   -0.662223  -0.200963  -0.073749   0.849152   0.016042  -0.091278
    11  H    0.072293   0.021142  -0.003798   0.061428   0.034470  -0.096324
    12  C    0.854679   0.596850  -0.355055  -5.451071  -1.435287   0.446436
    13  C   13.502166   0.065591   0.824059  -1.038768   1.405421  -4.053424
    14  H    0.065591   0.495250   0.013384  -0.025329   0.013806  -0.114554
    15  O    0.824059   0.013384   8.092072  -0.097796  -0.020235  -0.021107
    16  C   -1.038768  -0.025329  -0.097796  18.872489  -1.334805  -2.860061
    17  C    1.405421   0.013806  -0.020235  -1.334805  25.160161  -9.679686
    18  C   -4.053424  -0.114554  -0.021107  -2.860061  -9.679686  21.205970
    19  O   -0.102948   0.001698  -0.021036   0.179123   0.177873   0.121964
    20  C   -4.373189   0.018617  -0.091258  -0.119413  -8.936602   5.287657
    21  C   -0.331901  -0.056575   0.007093  -4.657867   0.074496   1.008500
    22  H   -0.174599  -0.005894  -0.001113  -0.467577  -0.120144   1.016202
    23  H   -0.001036  -0.002624   0.091583  -0.174029   0.106083   0.007418
    24  H   -0.040677  -0.000042  -0.000151  -0.103781  -0.258551   0.086617
    25  C    0.116167  -0.015206  -0.002197   1.290838   1.004864  -4.930219
    26  H    0.016102  -0.000140  -0.000038   0.122742   0.095523  -0.170868
    27  O   -0.010522  -0.000836  -0.000030   0.078899   0.056296  -0.138923
    28  C   -0.002202   0.000147   0.000059  -0.046468   0.064388   0.005797
    29  H   -0.001537  -0.000039  -0.000003  -0.015872   0.002664   0.007403
    30  H    0.000500   0.000068   0.000008   0.002904  -0.005771  -0.014278
    31  H   -0.002762  -0.000072   0.000003   0.004439  -0.002443   0.054792
              19         20         21         22         23         24
     1  C    0.000238  -0.000113   0.026652   0.017636  -0.000313  -0.000016
     2  H    0.000010   0.000067   0.001177   0.001571  -0.000043   0.000000
     3  H   -0.000020  -0.003361   0.004534  -0.013412  -0.000013  -0.000029
     4  C   -0.000171  -0.001748   0.007827   0.000369   0.000244  -0.000020
     5  H    0.000000   0.000420  -0.001426  -0.000537  -0.000016   0.000001
     6  N   -0.000178  -0.015083   0.054189   0.018344   0.001146  -0.000023
     7  H   -0.000067   0.001134  -0.001209   0.002882   0.000143   0.000005
     8  H    0.000065  -0.001632   0.004814   0.001310   0.000122   0.000006
     9  H   -0.000006   0.000045  -0.000848  -0.000317   0.000007  -0.000001
    10  C   -0.010018  -0.197206   0.203302  -0.065717   0.011236  -0.001534
    11  H   -0.000968   0.029727  -0.053538  -0.009104  -0.002760   0.000005
    12  C    0.010942  -1.059200   0.360707   0.064525   0.003046  -0.006585
    13  C   -0.102948  -4.373189  -0.331901  -0.174599  -0.001036  -0.040677
    14  H    0.001698   0.018617  -0.056575  -0.005894  -0.002624  -0.000042
    15  O   -0.021036  -0.091258   0.007093  -0.001113   0.091583  -0.000151
    16  C    0.179123  -0.119413  -4.657867  -0.467577  -0.174029  -0.103781
    17  C    0.177873  -8.936602   0.074496  -0.120144   0.106083  -0.258551
    18  C    0.121964   5.287657   1.008500   1.016202   0.007418   0.086617
    19  O    8.117369  -0.372138  -0.007436   0.000483   0.242339  -0.027354
    20  C   -0.372138  21.325433  -3.023254   0.128918   0.003551   0.658870
    21  C   -0.007436  -3.023254  13.932609   0.136716   0.032875   0.048191
    22  H    0.000483   0.128918   0.136716   0.520873   0.001702   0.004057
    23  H    0.242339   0.003551   0.032875   0.001702   0.356041   0.001302
    24  H   -0.027354   0.658870   0.048191   0.004057   0.001302   0.446425
    25  C    0.005983  -2.564843  -1.140594  -0.287759  -0.003736  -0.060147
    26  H    0.001887  -0.219684  -0.231074  -0.010424  -0.000104  -0.016435
    27  O    0.000344   0.012942  -0.092076  -0.042305   0.000357  -0.000706
    28  C   -0.000985  -0.256872   0.274458   0.008256   0.000028   0.003990
    29  H    0.000047   0.011501  -0.008819   0.001196   0.000048   0.000681
    30  H   -0.000034  -0.007936   0.039179  -0.000755  -0.000022   0.000128
    31  H    0.000048   0.008221  -0.041843  -0.001574   0.000013   0.000723
              25         26         27         28         29         30
     1  C   -0.002814  -0.000028  -0.000147  -0.000197  -0.000008  -0.000001
     2  H   -0.000272  -0.000003  -0.000009  -0.000014  -0.000001   0.000001
     3  H    0.005608   0.000072   0.000256  -0.000019   0.000006   0.000010
     4  C    0.002120   0.000040  -0.000049   0.000052   0.000018   0.000001
     5  H   -0.000215   0.000002   0.000011   0.000012  -0.000009   0.000002
     6  N    0.003411   0.000022   0.000111   0.000160   0.000031  -0.000005
     7  H   -0.000398  -0.000004   0.000019   0.000005  -0.000003   0.000001
     8  H    0.000345  -0.000011   0.000022  -0.000022   0.000008  -0.000008
     9  H   -0.000014   0.000000  -0.000004   0.000003   0.000001   0.000000
    10  C    0.149755   0.002016   0.002172  -0.001274  -0.000177  -0.000213
    11  H   -0.002779   0.000044  -0.000272  -0.000029  -0.000063   0.000049
    12  C   -0.109399  -0.002188  -0.016310  -0.001100  -0.000540   0.000864
    13  C    0.116167   0.016102  -0.010522  -0.002202  -0.001537   0.000500
    14  H   -0.015206  -0.000140  -0.000836   0.000147  -0.000039   0.000068
    15  O   -0.002197  -0.000038  -0.000030   0.000059  -0.000003   0.000008
    16  C    1.290838   0.122742   0.078899  -0.046468  -0.015872   0.002904
    17  C    1.004864   0.095523   0.056296   0.064388   0.002664  -0.005771
    18  C   -4.930219  -0.170868  -0.138923   0.005797   0.007403  -0.014278
    19  O    0.005983   0.001887   0.000344  -0.000985   0.000047  -0.000034
    20  C   -2.564843  -0.219684   0.012942  -0.256872   0.011501  -0.007936
    21  C   -1.140594  -0.231074  -0.092076   0.274458  -0.008819   0.039179
    22  H   -0.287759  -0.010424  -0.042305   0.008256   0.001196  -0.000755
    23  H   -0.003736  -0.000104   0.000357   0.000028   0.000048  -0.000022
    24  H   -0.060147  -0.016435  -0.000706   0.003990   0.000681   0.000128
    25  C   11.519817   0.727870   0.070429  -0.287018  -0.012323   0.022796
    26  H    0.727870   0.466712  -0.011657  -0.009911  -0.008077   0.003369
    27  O    0.070429  -0.011657   8.209674   0.179663  -0.034940  -0.060931
    28  C   -0.287018  -0.009911   0.179663   5.248403   0.402416   0.395095
    29  H   -0.012323  -0.008077  -0.034940   0.402416   0.560535  -0.021495
    30  H    0.022796   0.003369  -0.060931   0.395095  -0.021495   0.449531
    31  H   -0.036721  -0.008379  -0.035321   0.406609  -0.061290  -0.019226
              31
     1  C   -0.000032
     2  H   -0.000002
     3  H    0.000008
     4  C   -0.000011
     5  H    0.000002
     6  N   -0.000019
     7  H    0.000003
     8  H    0.000004
     9  H    0.000000
    10  C    0.000528
    11  H   -0.000008
    12  C   -0.002064
    13  C   -0.002762
    14  H   -0.000072
    15  O    0.000003
    16  C    0.004439
    17  C   -0.002443
    18  C    0.054792
    19  O    0.000048
    20  C    0.008221
    21  C   -0.041843
    22  H   -0.001574
    23  H    0.000013
    24  H    0.000723
    25  C   -0.036721
    26  H   -0.008379
    27  O   -0.035321
    28  C    0.406609
    29  H   -0.061290
    30  H   -0.019226
    31  H    0.555576
 Mulliken charges:
               1
     1  C   -0.436360
     2  H    0.205247
     3  H    0.185185
     4  C   -0.326036
     5  H    0.177471
     6  N    0.173720
     7  H    0.186143
     8  H    0.147554
     9  H    0.185339
    10  C   -0.676524
    11  H    0.196340
    12  C   -0.286920
    13  C    0.255403
    14  H    0.247404
    15  O   -0.331386
    16  C    1.222429
    17  C   -0.371842
    18  C   -1.305640
    19  O   -0.317050
    20  C   -0.243572
    21  C   -0.568858
    22  H    0.276191
    23  H    0.325412
    24  H    0.265049
    25  C    0.536651
    26  H    0.252624
    27  O   -0.166157
    28  C   -0.383429
    29  H    0.178642
    30  H    0.216171
    31  H    0.180798
 Sum of Mulliken charges =   0.00000
 Mulliken charges with hydrogens summed into heavy atoms:
               1
     1  C    0.140215
     4  C    0.184328
     6  N    0.173720
    10  C   -0.480184
    12  C   -0.039517
    13  C    0.255403
    15  O   -0.331386
    16  C    1.222429
    17  C   -0.371842
    18  C   -1.029448
    19  O    0.008362
    20  C    0.021477
    21  C   -0.568858
    25  C    0.789276
    27  O   -0.166157
    28  C    0.192183
 Electronic spatial extent (au):  <R**2>=           4960.1883
 Charge=              0.0000 electrons
 Dipole moment (field-independent basis, Debye):
    X=              0.7895    Y=             -7.1716    Z=              1.0955  Tot=              7.2976
 Quadrupole moment (field-independent basis, Debye-Ang):
   XX=            -58.8295   YY=           -107.7875   ZZ=            -92.5707
   XY=             -1.6333   XZ=              0.8412   YZ=              0.0354
 Traceless Quadrupole moment (field-independent basis, Debye-Ang):
   XX=             27.5664   YY=            -21.3916   ZZ=             -6.1748
   XY=             -1.6333   XZ=              0.8412   YZ=              0.0354
 Octapole moment (field-independent basis, Debye-Ang**2):
  XXX=             10.3130  YYY=            -71.1149  ZZZ=              2.7763  XYY=            -13.1097
  XXY=            -81.8986  XXZ=             15.1375  XZZ=             20.7162  YZZ=             -3.4073
  YYZ=              2.3142  XYZ=              3.5447
 Hexadecapole moment (field-independent basis, Debye-Ang**3):
 XXXX=          -3662.1853 YYYY=          -1773.2618 ZZZZ=           -317.4547 XXXY=            -10.5701
 XXXZ=             -9.2815 YYYX=             97.3077 YYYZ=              0.5064 ZZZX=             13.7752
 ZZZY=             -3.2049 XXYY=           -943.7197 XXZZ=           -767.8518 YYZZ=           -343.6927
 XXYZ=              2.2590 YYXZ=              7.8886 ZZXY=             -0.8855
 N-N= 1.058006867540D+03 E-N=-3.858869002282D+03  KE= 7.435508429497D+02
 1\1\GINC-NXV30\FOpt\RwB97XD TD-FC\6-311++G(d,p)\C12H15N1O3\CA12053\28-
 Jul-2017\0\\# wb97xd 6-311++g** opt td=(nstates=1,root=1) SCRF=(PCM,so
 lvent=dichloromethane)\\Geom Opt s1\\0,1\C,-11.9464417394,1.0626995276
 ,13.1583112507\H,-12.4633079321,0.585964149,13.9871757725\H,-10.905799
 418,0.7362262675,13.1481744356\C,-13.669784626,-0.3192677411,12.009413
 9914\H,-13.2656311075,-1.2387465752,12.4352162716\N,-12.6064967781,0.6
 750450935,11.9119270517\H,-11.9920186064,2.144319943,13.2854662257\H,-
 14.0781487173,-0.5218670481,11.0221120926\H,-14.457278301,0.0629628582
 ,12.6602895353\C,-12.2474146872,1.1734680607,10.7516306973\H,-12.79633
 08923,0.8117715818,9.889388802\C,-11.2137918363,2.0932818913,10.543549
 1213\C,-10.9437543903,2.5835555225,9.1962781886\H,-10.7087490369,2.540
 6669747,11.398935638\O,-11.6884032833,3.6272155574,8.9510062256\C,-9.9
 691476666,2.0227152315,8.3175920479\C,-9.7643117403,2.5762784704,7.020
 623151\C,-9.1921398406,0.910955876,8.6867402505\O,-10.4878826965,3.658
 2840435,6.6105783631\C,-8.8348781975,2.0191018089,6.1728119002\C,-8.25
 36886101,0.3578964612,7.8161180501\H,-9.3095544375,0.4647164009,9.6689
 471888\H,-11.0814586901,3.8980581354,7.3555353377\H,-8.6988360871,2.45
 72940544,5.1900239658\C,-8.0681016477,0.9049499222,6.5534515743\H,-7.3
 476944958,0.4988330342,5.8567570408\O,-7.5652662469,-0.7220372407,8.30
 00029777\C,-6.590223496,-1.3100687351,7.463724058\H,-7.0339112126,-1.6
 960243986,6.5393081592\H,-6.1643848798,-2.137176937,8.0295653674\H,-5.
 7960007028,-0.59842919,7.2121962675\\Version=ES64L-G09RevD.01\State=1-
 A\HF=-746.6422398\RMSD=6.823e-09\RMSF=5.631e-06\Dipole=-1.9406303,-3.5
 066273,4.8768654\PG=C01 [X(C12H15N1O3)]\\@


 WE HAVE LEFT UNDONE THOSE THINGS WHICH WE OUGHT TO HAVE DONE,
 AND WE HAVE DONE THOSE THINGS WHICH WE OUGHT NOT TO HAVE DONE.
                   BOOK OF COMMON PRAYER                      
 Job cpu time:       1 days 18 hours  6 minutes 33.6 seconds.
 File lengths (MBytes):  RWF=    303 Int=      0 D2E=      0 Chk=     31 Scr=      1
 Normal termination of Gaussian 09 at Fri Jul 28 03:24:28 2017.
