 Entering Gaussian System, Link 0=g09
 Input=5_opt.com
 Output=5_opt.out
 Initial command:
 /share/apps/gaussian/g09_D01/g09/l1.exe "/tmp/4018005.1.chemistry.q/Gau-22861.inp" -scrdir="/tmp/4018005.1.chemistry.q/"
 Entering Link 1 = /share/apps/gaussian/g09_D01/g09/l1.exe PID=     22862.
  
 Copyright (c) 1988,1990,1992,1993,1995,1998,2003,2009,2013,
            Gaussian, Inc.  All Rights Reserved.
  
 This is part of the Gaussian(R) 09 program.  It is based on
 the Gaussian(R) 03 system (copyright 2003, Gaussian, Inc.),
 the Gaussian(R) 98 system (copyright 1998, Gaussian, Inc.),
 the Gaussian(R) 94 system (copyright 1995, Gaussian, Inc.),
 the Gaussian 92(TM) system (copyright 1992, Gaussian, Inc.),
 the Gaussian 90(TM) system (copyright 1990, Gaussian, Inc.),
 the Gaussian 88(TM) system (copyright 1988, Gaussian, Inc.),
 the Gaussian 86(TM) system (copyright 1986, Carnegie Mellon
 University), and the Gaussian 82(TM) system (copyright 1983,
 Carnegie Mellon University). Gaussian is a federally registered
 trademark of Gaussian, Inc.
  
 This software contains proprietary and confidential information,
 including trade secrets, belonging to Gaussian, Inc.
  
 This software is provided under written license and may be
 used, copied, transmitted, or stored only in accord with that
 written license.
  
 The following legend is applicable only to US Government
 contracts under FAR:
  
                    RESTRICTED RIGHTS LEGEND
  
 Use, reproduction and disclosure by the US Government is
 subject to restrictions as set forth in subparagraphs (a)
 and (c) of the Commercial Computer Software - Restricted
 Rights clause in FAR 52.227-19.
  
 Gaussian, Inc.
 340 Quinnipiac St., Bldg. 40, Wallingford CT 06492
  
  
 ---------------------------------------------------------------
 Warning -- This program may not be used in any manner that
 competes with the business of Gaussian, Inc. or will provide
 assistance to any competitor of Gaussian, Inc.  The licensee
 of this program is prohibited from giving any competitor of
 Gaussian, Inc. access to this program.  By using this program,
 the user acknowledges that Gaussian, Inc. is engaged in the
 business of creating and licensing software in the field of
 computational chemistry and represents and warrants to the
 licensee that it is not a competitor of Gaussian, Inc. and that
 it will not use this program in any manner prohibited above.
 ---------------------------------------------------------------
  

 Cite this work as:
 Gaussian 09, Revision D.01,
 M. J. Frisch, G. W. Trucks, H. B. Schlegel, G. E. Scuseria, 
 M. A. Robb, J. R. Cheeseman, G. Scalmani, V. Barone, B. Mennucci, 
 G. A. Petersson, H. Nakatsuji, M. Caricato, X. Li, H. P. Hratchian, 
 A. F. Izmaylov, J. Bloino, G. Zheng, J. L. Sonnenberg, M. Hada, 
 M. Ehara, K. Toyota, R. Fukuda, J. Hasegawa, M. Ishida, T. Nakajima, 
 Y. Honda, O. Kitao, H. Nakai, T. Vreven, J. A. Montgomery, Jr., 
 J. E. Peralta, F. Ogliaro, M. Bearpark, J. J. Heyd, E. Brothers, 
 K. N. Kudin, V. N. Staroverov, T. Keith, R. Kobayashi, J. Normand, 
 K. Raghavachari, A. Rendell, J. C. Burant, S. S. Iyengar, J. Tomasi, 
 M. Cossi, N. Rega, J. M. Millam, M. Klene, J. E. Knox, J. B. Cross, 
 V. Bakken, C. Adamo, J. Jaramillo, R. Gomperts, R. E. Stratmann, 
 O. Yazyev, A. J. Austin, R. Cammi, C. Pomelli, J. W. Ochterski, 
 R. L. Martin, K. Morokuma, V. G. Zakrzewski, G. A. Voth, 
 P. Salvador, J. J. Dannenberg, S. Dapprich, A. D. Daniels, 
 O. Farkas, J. B. Foresman, J. V. Ortiz, J. Cioslowski, 
 and D. J. Fox, Gaussian, Inc., Wallingford CT, 2013.
 
 ******************************************
 Gaussian 09:  ES64L-G09RevD.01 24-Apr-2013
                19-Jun-2017 
 ******************************************
 %chk=5_opt.chk
 %mem=14GB
 %nproc=2
 Will use up to    2 processors via shared memory.
 -----------------------
 # wb97xd 6-311++g** opt
 -----------------------
 1/14=-1,18=20,19=15,26=3,38=1/1,3;
 2/9=110,12=2,17=6,18=5,40=1/2;
 3/5=4,6=6,7=1111,11=2,16=1,25=1,30=1,71=1,74=-58/1,2,3;
 4//1;
 5/5=2,38=5/2;
 6/7=2,8=2,9=2,10=2,28=1/1;
 7//1,2,3,16;
 1/14=-1,18=20,19=15,26=3/3(2);
 2/9=110/2;
 99//99;
 2/9=110/2;
 3/5=4,6=6,7=1111,11=2,16=1,25=1,30=1,71=1,74=-58/1,2,3;
 4/5=5,16=3,69=1/1;
 5/5=2,38=5/2;
 7//1,2,3,16;
 1/14=-1,18=20,19=15,26=3/3(-5);
 2/9=110/2;
 6/7=2,8=2,9=2,10=2,19=2,28=1/1;
 99/9=1/99;
 -----------
 Geom Opt s0
 -----------
 Symbolic Z-matrix:
 Charge =  0 Multiplicity = 1
 C                    -0.00594   0.2586    8.59834 
 H                     0.94413   0.71519   8.8749 
 H                    -0.7869    1.02805   8.62294 
 C                     1.26628   0.02525   6.479 
 H                     1.26581   1.09307   6.23187 
 N                     0.11245  -0.33121   7.28121 
 H                    -0.24991  -0.50826   9.33952 
 H                     1.25577  -0.54423   5.54993 
 H                     2.19036  -0.20785   7.01553 
 C                    -0.90377  -1.04026   6.76384 
 H                    -0.74347  -1.4294    5.76242 
 C                    -2.0926   -1.32356   7.36221 
 C                    -3.0517   -2.13261   6.63434 
 H                    -2.32474  -0.94996   8.34738 
 O                    -2.78381  -2.56547   5.49899 
 C                    -4.37343  -2.45086   7.23512 
 C                    -5.29832  -3.22976   6.49891 
 C                    -4.75402  -2.01247   8.51321 
 O                    -5.03662  -3.69724   5.27783 
 C                    -6.54813  -3.53681   7.05206 
 C                    -5.98649  -2.31818   9.05429 
 H                    -4.06843  -1.41637   9.10178 
 H                    -4.12565  -3.39104   5.05339 
 H                    -7.23076  -4.1346    6.46001 
 C                    -6.88565  -3.0871    8.31109 
 H                    -7.85753  -3.33378   8.72474 
 O                    -6.33925  -1.84965   10.36944 
 C                    -6.60871  -2.81349   11.37408 
 H                    -7.46226  -3.45031   11.10774 
 H                    -5.73645  -3.45031   11.57065 
 H                    -6.85067  -2.24954   12.27615 
 

 GradGradGradGradGradGradGradGradGradGradGradGradGradGradGradGradGradGrad
 Berny optimization.
 Initialization pass.
                           ----------------------------
                           !    Initial Parameters    !
                           ! (Angstroms and Degrees)  !
 --------------------------                            --------------------------
 ! Name  Definition              Value          Derivative Info.                !
 --------------------------------------------------------------------------------
 ! R1    R(1,2)                  1.0898         estimate D2E/DX2                !
 ! R2    R(1,3)                  1.0966         estimate D2E/DX2                !
 ! R3    R(1,6)                  1.448          estimate D2E/DX2                !
 ! R4    R(1,7)                  1.0941         estimate D2E/DX2                !
 ! R5    R(4,5)                  1.096          estimate D2E/DX2                !
 ! R6    R(4,6)                  1.4498         estimate D2E/DX2                !
 ! R7    R(4,8)                  1.0898         estimate D2E/DX2                !
 ! R8    R(4,9)                  1.0937         estimate D2E/DX2                !
 ! R9    R(6,10)                 1.3428         estimate D2E/DX2                !
 ! R10   R(10,11)                1.0863         estimate D2E/DX2                !
 ! R11   R(10,12)                1.3608         estimate D2E/DX2                !
 ! R12   R(12,13)                1.4506         estimate D2E/DX2                !
 ! R13   R(12,14)                1.0789         estimate D2E/DX2                !
 ! R14   R(13,15)                1.2442         estimate D2E/DX2                !
 ! R15   R(13,16)                1.4863         estimate D2E/DX2                !
 ! R16   R(16,17)                1.4157         estimate D2E/DX2                !
 ! R17   R(16,18)                1.4038         estimate D2E/DX2                !
 ! R18   R(17,19)                1.3334         estimate D2E/DX2                !
 ! R19   R(17,20)                1.4008         estimate D2E/DX2                !
 ! R20   R(18,21)                1.3803         estimate D2E/DX2                !
 ! R21   R(18,22)                1.0825         estimate D2E/DX2                !
 ! R22   R(19,23)                0.9869         estimate D2E/DX2                !
 ! R23   R(20,24)                1.0835         estimate D2E/DX2                !
 ! R24   R(20,25)                1.3789         estimate D2E/DX2                !
 ! R25   R(21,25)                1.3972         estimate D2E/DX2                !
 ! R26   R(21,27)                1.44           estimate D2E/DX2                !
 ! R27   R(25,26)                1.0847         estimate D2E/DX2                !
 ! R28   R(27,28)                1.4181         estimate D2E/DX2                !
 ! R29   R(28,29)                1.0977         estimate D2E/DX2                !
 ! R30   R(28,30)                1.0977         estimate D2E/DX2                !
 ! R31   R(28,31)                1.091          estimate D2E/DX2                !
 ! A1    A(2,1,3)              108.7348         estimate D2E/DX2                !
 ! A2    A(2,1,6)              109.2826         estimate D2E/DX2                !
 ! A3    A(2,1,7)              108.4308         estimate D2E/DX2                !
 ! A4    A(3,1,6)              111.373          estimate D2E/DX2                !
 ! A5    A(3,1,7)              108.5308         estimate D2E/DX2                !
 ! A6    A(6,1,7)              110.4234         estimate D2E/DX2                !
 ! A7    A(5,4,6)              111.3432         estimate D2E/DX2                !
 ! A8    A(5,4,8)              108.4749         estimate D2E/DX2                !
 ! A9    A(5,4,9)              108.5796         estimate D2E/DX2                !
 ! A10   A(6,4,8)              109.6073         estimate D2E/DX2                !
 ! A11   A(6,4,9)              110.4007         estimate D2E/DX2                !
 ! A12   A(8,4,9)              108.3615         estimate D2E/DX2                !
 ! A13   A(1,6,4)              117.9196         estimate D2E/DX2                !
 ! A14   A(1,6,10)             120.2438         estimate D2E/DX2                !
 ! A15   A(4,6,10)             121.26           estimate D2E/DX2                !
 ! A16   A(6,10,11)            115.6379         estimate D2E/DX2                !
 ! A17   A(6,10,12)            126.9902         estimate D2E/DX2                !
 ! A18   A(11,10,12)           117.3704         estimate D2E/DX2                !
 ! A19   A(10,12,13)           118.2363         estimate D2E/DX2                !
 ! A20   A(10,12,14)           121.1592         estimate D2E/DX2                !
 ! A21   A(13,12,14)           120.6013         estimate D2E/DX2                !
 ! A22   A(12,13,15)           120.633          estimate D2E/DX2                !
 ! A23   A(12,13,16)           120.3019         estimate D2E/DX2                !
 ! A24   A(15,13,16)           119.0645         estimate D2E/DX2                !
 ! A25   A(13,16,17)           119.247          estimate D2E/DX2                !
 ! A26   A(13,16,18)           122.8365         estimate D2E/DX2                !
 ! A27   A(17,16,18)           117.9165         estimate D2E/DX2                !
 ! A28   A(16,17,19)           122.7449         estimate D2E/DX2                !
 ! A29   A(16,17,20)           119.877          estimate D2E/DX2                !
 ! A30   A(19,17,20)           117.3781         estimate D2E/DX2                !
 ! A31   A(16,18,21)           121.9939         estimate D2E/DX2                !
 ! A32   A(16,18,22)           119.6898         estimate D2E/DX2                !
 ! A33   A(21,18,22)           118.3164         estimate D2E/DX2                !
 ! A34   A(17,19,23)           106.2981         estimate D2E/DX2                !
 ! A35   A(17,20,24)           117.8583         estimate D2E/DX2                !
 ! A36   A(17,20,25)           120.4949         estimate D2E/DX2                !
 ! A37   A(24,20,25)           121.6468         estimate D2E/DX2                !
 ! A38   A(18,21,25)           119.2099         estimate D2E/DX2                !
 ! A39   A(18,21,27)           120.3106         estimate D2E/DX2                !
 ! A40   A(25,21,27)           120.4795         estimate D2E/DX2                !
 ! A41   A(20,25,21)           120.5079         estimate D2E/DX2                !
 ! A42   A(20,25,26)           119.5623         estimate D2E/DX2                !
 ! A43   A(21,25,26)           119.9298         estimate D2E/DX2                !
 ! A44   A(21,27,28)           118.1923         estimate D2E/DX2                !
 ! A45   A(27,28,29)           111.7263         estimate D2E/DX2                !
 ! A46   A(27,28,30)           111.7263         estimate D2E/DX2                !
 ! A47   A(27,28,31)           106.0557         estimate D2E/DX2                !
 ! A48   A(29,28,30)           108.9504         estimate D2E/DX2                !
 ! A49   A(29,28,31)           109.1492         estimate D2E/DX2                !
 ! A50   A(30,28,31)           109.1492         estimate D2E/DX2                !
 ! D1    D(2,1,6,4)            -13.4848         estimate D2E/DX2                !
 ! D2    D(2,1,6,10)           175.1118         estimate D2E/DX2                !
 ! D3    D(3,1,6,4)            106.669          estimate D2E/DX2                !
 ! D4    D(3,1,6,10)           -64.7344         estimate D2E/DX2                !
 ! D5    D(7,1,6,4)           -132.6736         estimate D2E/DX2                !
 ! D6    D(7,1,6,10)            55.923          estimate D2E/DX2                !
 ! D7    D(5,4,6,1)            -63.89           estimate D2E/DX2                !
 ! D8    D(5,4,6,10)           107.4215         estimate D2E/DX2                !
 ! D9    D(8,4,6,1)            176.0861         estimate D2E/DX2                !
 ! D10   D(8,4,6,10)           -12.6024         estimate D2E/DX2                !
 ! D11   D(9,4,6,1)             56.7938         estimate D2E/DX2                !
 ! D12   D(9,4,6,10)          -131.8947         estimate D2E/DX2                !
 ! D13   D(1,6,10,11)          178.6481         estimate D2E/DX2                !
 ! D14   D(1,6,10,12)           -1.819          estimate D2E/DX2                !
 ! D15   D(4,6,10,11)            7.5364         estimate D2E/DX2                !
 ! D16   D(4,6,10,12)         -172.9306         estimate D2E/DX2                !
 ! D17   D(6,10,12,13)        -178.8301         estimate D2E/DX2                !
 ! D18   D(6,10,12,14)           1.8149         estimate D2E/DX2                !
 ! D19   D(11,10,12,13)          0.6957         estimate D2E/DX2                !
 ! D20   D(11,10,12,14)       -178.6592         estimate D2E/DX2                !
 ! D21   D(10,12,13,15)          0.7511         estimate D2E/DX2                !
 ! D22   D(10,12,13,16)       -178.9788         estimate D2E/DX2                !
 ! D23   D(14,12,13,15)       -179.8903         estimate D2E/DX2                !
 ! D24   D(14,12,13,16)          0.3799         estimate D2E/DX2                !
 ! D25   D(12,13,16,17)        179.2973         estimate D2E/DX2                !
 ! D26   D(12,13,16,18)         -0.7587         estimate D2E/DX2                !
 ! D27   D(15,13,16,17)         -0.4368         estimate D2E/DX2                !
 ! D28   D(15,13,16,18)        179.5073         estimate D2E/DX2                !
 ! D29   D(13,16,17,19)          0.0215         estimate D2E/DX2                !
 ! D30   D(13,16,17,20)       -179.9582         estimate D2E/DX2                !
 ! D31   D(18,16,17,19)       -179.9253         estimate D2E/DX2                !
 ! D32   D(18,16,17,20)          0.095          estimate D2E/DX2                !
 ! D33   D(13,16,18,21)        179.9907         estimate D2E/DX2                !
 ! D34   D(13,16,18,22)         -0.0379         estimate D2E/DX2                !
 ! D35   D(17,16,18,21)         -0.0645         estimate D2E/DX2                !
 ! D36   D(17,16,18,22)        179.9069         estimate D2E/DX2                !
 ! D37   D(16,17,19,23)          0.2018         estimate D2E/DX2                !
 ! D38   D(20,17,19,23)       -179.818          estimate D2E/DX2                !
 ! D39   D(16,17,20,24)        179.9736         estimate D2E/DX2                !
 ! D40   D(16,17,20,25)         -0.0695         estimate D2E/DX2                !
 ! D41   D(19,17,20,24)         -0.0072         estimate D2E/DX2                !
 ! D42   D(19,17,20,25)        179.9497         estimate D2E/DX2                !
 ! D43   D(16,18,21,25)          0.0065         estimate D2E/DX2                !
 ! D44   D(16,18,21,27)        179.9847         estimate D2E/DX2                !
 ! D45   D(22,18,21,25)       -179.9653         estimate D2E/DX2                !
 ! D46   D(22,18,21,27)          0.0129         estimate D2E/DX2                !
 ! D47   D(17,20,25,21)          0.0098         estimate D2E/DX2                !
 ! D48   D(17,20,25,26)        179.9995         estimate D2E/DX2                !
 ! D49   D(24,20,25,21)        179.9651         estimate D2E/DX2                !
 ! D50   D(24,20,25,26)         -0.0453         estimate D2E/DX2                !
 ! D51   D(18,21,25,20)          0.022          estimate D2E/DX2                !
 ! D52   D(18,21,25,26)       -179.9676         estimate D2E/DX2                !
 ! D53   D(27,21,25,20)       -179.9561         estimate D2E/DX2                !
 ! D54   D(27,21,25,26)          0.0543         estimate D2E/DX2                !
 ! D55   D(18,21,27,28)       -118.1951         estimate D2E/DX2                !
 ! D56   D(25,21,27,28)         61.7828         estimate D2E/DX2                !
 ! D57   D(21,27,28,29)        -61.1755         estimate D2E/DX2                !
 ! D58   D(21,27,28,30)         61.1755         estimate D2E/DX2                !
 ! D59   D(21,27,28,31)        180.0            estimate D2E/DX2                !
 --------------------------------------------------------------------------------
 Trust Radius=3.00D-01 FncErr=1.00D-07 GrdErr=1.00D-06
 Number of steps in this run=    150 maximum allowed number of steps=    186.
 GradGradGradGradGradGradGradGradGradGradGradGradGradGradGradGradGradGrad

                          Input orientation:                          
 ---------------------------------------------------------------------
 Center     Atomic      Atomic             Coordinates (Angstroms)
 Number     Number       Type             X           Y           Z
 ---------------------------------------------------------------------
      1          6           0       -0.005944    0.258601    8.598337
      2          1           0        0.944130    0.715194    8.874902
      3          1           0       -0.786901    1.028050    8.622937
      4          6           0        1.266281    0.025251    6.478995
      5          1           0        1.265811    1.093067    6.231874
      6          7           0        0.112445   -0.331212    7.281213
      7          1           0       -0.249914   -0.508263    9.339524
      8          1           0        1.255768   -0.544225    5.549928
      9          1           0        2.190355   -0.207852    7.015529
     10          6           0       -0.903771   -1.040262    6.763835
     11          1           0       -0.743468   -1.429398    5.762419
     12          6           0       -2.092605   -1.323564    7.362212
     13          6           0       -3.051698   -2.132606    6.634340
     14          1           0       -2.324738   -0.949962    8.347376
     15          8           0       -2.783806   -2.565468    5.498990
     16          6           0       -4.373429   -2.450864    7.235120
     17          6           0       -5.298316   -3.229757    6.498906
     18          6           0       -4.754023   -2.012473    8.513208
     19          8           0       -5.036622   -3.697238    5.277832
     20          6           0       -6.548126   -3.536813    7.052064
     21          6           0       -5.986491   -2.318183    9.054286
     22          1           0       -4.068433   -1.416374    9.101783
     23          1           0       -4.125648   -3.391038    5.053391
     24          1           0       -7.230757   -4.134604    6.460005
     25          6           0       -6.885648   -3.087101    8.311090
     26          1           0       -7.857526   -3.333780    8.724744
     27          8           0       -6.339247   -1.849647   10.369443
     28          6           0       -6.608713   -2.813493   11.374076
     29          1           0       -7.462260   -3.450312   11.107744
     30          1           0       -5.736454   -3.450312   11.570646
     31          1           0       -6.850670   -2.249544   12.276149
 ---------------------------------------------------------------------
                    Distance matrix (angstroms):
                    1          2          3          4          5
     1  C    0.000000
     2  H    1.089773   0.000000
     3  H    1.096609   1.777029   0.000000
     4  C    2.482865   2.513995   3.133313   0.000000
     5  H    2.813155   2.689212   3.151989   1.096038   0.000000
     6  N    1.448002   2.080026   2.111075   1.449813   2.111856
     7  H    1.094057   1.771570   1.778232   3.281175   3.810403
     8  H    3.395474   3.569132   4.010976   1.089761   1.773662
     9  H    2.747106   2.421231   3.602120   1.093672   1.778001
    10  C    2.420441   3.309527   2.783493   2.434251   3.088877
    11  H    3.381673   4.139422   3.771406   2.582359   3.258899
    12  C    2.895756   3.958096   2.970586   3.725787   4.289141
    13  C    4.341863   5.394138   4.367330   4.829640   5.404427
    14  H    2.626863   3.706282   2.520597   4.163809   4.641267
    15  O    5.029695   6.004751   5.163337   4.906673   5.506487
    16  C    5.317376   6.402284   5.185756   6.205578   6.735501
    17  C    6.677234   7.757327   6.556927   7.327306   7.864215
    18  C    5.263960   6.327712   4.999488   6.673410   7.147536
    19  O    7.209864   8.256989   7.181797   7.417972   7.973574
    20  C    7.719862   8.805464   7.516471   8.607071   9.119546
    21  C    6.527990   7.567500   6.198312   8.045279   8.496971
    22  H    4.422987   5.451683   4.119825   6.116901   6.556511
    23  H    6.546638   7.560935   6.589175   6.540357   7.110826
    24  H    8.721848   9.807194   8.535488   9.460677   9.978590
    25  C    7.655492   8.722428   7.363860   8.916123   9.393787
    26  H    8.635307   9.689473   8.308409   9.978493  10.442541
    27  O    6.905958   7.865090   6.493071   8.746135   9.144176
    28  C    7.793526   8.703042   7.497981   9.697207  10.183888
    29  H    8.697690   9.643880   8.413704  10.473408  10.981604
    30  H    7.445093   8.321579   7.296766   9.329670   9.908405
    31  H    8.165009   9.006501   7.801146  10.230669  10.657560
                    6          7          8          9         10
     6  N    0.000000
     7  H    2.097450   0.000000
     8  H    2.085644   4.077917   0.000000
     9  H    2.098456   3.383210   1.770476   0.000000
    10  C    1.342806   2.710115   2.526506   3.214012   0.000000
    11  H    2.060421   3.726629   2.196731   3.416105   1.086259
    12  C    2.419415   2.823117   3.886302   4.439454   1.360750
    13  C    3.698008   4.219775   4.717326   5.597241   2.413208
    14  H    2.731193   2.341869   4.561837   4.765565   2.129531
    15  O    4.068967   5.040080   4.517320   5.709687   2.731413
    16  C    4.961665   5.020517   6.177621   6.939927   3.774975
    17  C    6.187883   6.400156   7.146234   8.091910   4.916920
    18  C    5.294050   4.820005   6.859619   7.329672   4.339348
    19  O    6.469664   7.041270   7.043415   8.211249   5.133048
    20  C    7.395376   7.353371   8.491923   9.351169   6.178559
    21  C    6.654988   6.022083   8.238796   8.687395   5.719553
    22  H    4.687408   3.932210   6.459368   6.707116   3.952537
    23  H    5.682179   6.457758   6.108235   7.339929   4.339615
    24  H    8.310402   8.377001   9.259599  10.221807   7.049682
    25  C    7.591369   7.193125   8.965093   9.609494   6.508948
    26  H    8.638266   8.138628  10.045556  10.660805   7.580244
    27  O    7.312123   6.319812   9.089340   9.311194   6.572664
    28  C    8.251498   7.063130  10.045912  10.159227   7.546193
    29  H    9.041420   7.987502  10.739584  10.974185   8.227495
    30  H    7.895419   6.613296   9.673963   9.700358   7.229702
    31  H    8.781478   7.431407  10.670731  10.657522   8.198389
                   11         12         13         14         15
    11  H    0.000000
    12  C    2.095402   0.000000
    13  C    2.565672   1.450588   0.000000
    14  H    3.067943   1.078894   2.204906   0.000000
    15  O    2.350113   2.343434   1.244249   3.306646   0.000000
    16  C    4.048315   2.547374   1.486337   2.772536   2.356731
    17  C    4.952812   3.828244   2.503872   4.178094   2.786373
    18  C    4.898098   2.980358   2.538206   2.656662   3.643222
    19  O    4.879456   4.318125   2.868468   4.931931   2.530809
    20  C    6.308600   4.984609   3.790950   5.119242   4.186365
    21  C    6.254248   4.360588   3.808358   3.972428   4.791500
    22  H    4.712421   2.634126   2.763153   1.956308   3.993845
    23  H    3.973650   3.706530   2.288322   4.477998   1.637273
    24  H    7.063263   5.925920   4.637124   6.145985   4.812599
    25  C    6.853472   5.194583   4.292054   5.036922   5.000511
    26  H    7.938001   6.255540   5.376671   6.036285   6.061223
    27  O    7.260442   5.230121   4.983878   4.584154   6.072468
    28  C    8.234532   6.221750   5.964986   5.566516   7.014846
    29  H    8.820361   6.883695   6.418781   6.345511   7.357242
    30  H    7.921458   5.959162   5.771601   5.317991   6.809265
    31  H    8.966562   6.902420   6.802637   6.132555   7.910062
                   16         17         18         19         20
    16  C    0.000000
    17  C    1.415663   0.000000
    18  C    1.403762   2.415667   0.000000
    19  O    2.413348   1.333433   3.658682   0.000000
    20  C    2.437643   1.400818   2.770805   2.336296   0.000000
    21  C    2.434941   2.799021   1.380290   4.131059   2.410267
    22  H    2.155835   3.402343   1.082492   4.556570   3.853114
    23  H    2.388569   1.868335   3.776987   0.986917   3.143938
    24  H    3.405893   2.134148   3.853997   2.530425   1.083454
    25  C    2.806021   2.413293   2.395726   3.604417   1.378879
    26  H    3.890688   3.393336   3.379694   4.468870   2.133919
    27  O    3.748317   4.239021   2.446437   5.570900   3.727621
    28  C    4.717940   5.065343   3.502296   6.357411   4.382540
    29  H    5.053414   5.096341   4.016659   6.319222   4.158325
    30  H    4.653334   5.095405   3.518590   6.336422   4.591718
    31  H    5.620430   6.061944   4.314146   7.373129   5.388846
                   21         22         23         24         25
    21  C    0.000000
    22  H    2.120015   0.000000
    23  H    4.541026   4.504670   0.000000
    24  H    3.402628   4.936401   3.489005   0.000000
    25  C    1.397161   3.369455   4.280488   2.154734   0.000000
    26  H    2.154253   4.263312   5.235363   2.482580   1.084669
    27  O    1.440000   2.636528   5.961234   4.615141   2.463060
    28  C    2.452329   3.683515   6.815441   5.126438   3.087627
    29  H    2.770614   4.436084   6.913153   4.703544   2.878486
    30  H    2.770614   3.607559   6.713629   5.368412   3.475237
    31  H    3.336453   4.302513   7.803652   6.125802   4.052705
                   26         27         28         29         30
    26  H    0.000000
    27  O    2.685676   0.000000
    28  C    2.974760   1.418062   0.000000
    29  H    2.418368   2.090066   1.097731   0.000000
    30  H    3.551293   2.090066   1.097731   1.786808   0.000000
    31  H    3.847311   2.014200   1.091017   1.783551   1.783551
                   31
    31  H    0.000000
 Stoichiometry    C12H15NO3
 Framework group  C1[X(C12H15NO3)]
 Deg. of freedom    87
 Full point group                 C1      NOp   1
 Largest Abelian subgroup         C1      NOp   1
 Largest concise Abelian subgroup C1      NOp   1
                         Standard orientation:                         
 ---------------------------------------------------------------------
 Center     Atomic      Atomic             Coordinates (Angstroms)
 Number     Number       Type             X           Y           Z
 ---------------------------------------------------------------------
      1          6           0       -3.776535   -2.111026   -0.084384
      2          1           0       -4.717831   -2.651182    0.014608
      3          1           0       -3.337154   -2.345164   -1.061459
      4          6           0       -5.395972   -0.230494   -0.009275
      5          1           0       -5.834194   -0.422808   -0.995316
      6          7           0       -4.022877   -0.691140    0.056855
      7          1           0       -3.093948   -2.459597    0.696343
      8          1           0       -5.431506    0.841900    0.181218
      9          1           0       -6.004188   -0.735048    0.746779
     10          6           0       -2.997081    0.175292    0.069684
     11          1           0       -3.268328    1.223567    0.156292
     12          6           0       -1.671714   -0.123867   -0.004801
     13          6           0       -0.717629    0.967346    0.051616
     14          1           0       -1.334719   -1.142989   -0.113600
     15          8           0       -1.105524    2.142691    0.179119
     16          6           0        0.740092    0.694911   -0.048509
     17          6           0        1.650678    1.778017   -0.005903
     18          6           0        1.264914   -0.600003   -0.183814
     19          8           0        1.257932    3.045893    0.121712
     20          6           0        3.027293    1.536433   -0.100031
     21          6           0        2.622289   -0.833073   -0.275529
     22          1           0        0.594635   -1.449325   -0.217977
     23          1           0        0.272696    3.026525    0.175945
     24          1           0        3.694588    2.389258   -0.064265
     25          6           0        3.504414    0.249554   -0.232721
     26          1           0        4.573329    0.079846   -0.304332
     27          8           0        3.121278   -2.176824   -0.413170
     28          6           0        3.964985   -2.685898    0.606585
     29          1           0        4.885251   -2.095602    0.704944
     30          1           0        3.455251   -2.716079    1.578322
     31          1           0        4.222357   -3.702541    0.305727
 ---------------------------------------------------------------------
 Rotational constants (GHZ):      0.8098387      0.2599631      0.1993791
 Standard basis: 6-311++G(d,p) (5D, 7F)
 There are   473 symmetry adapted cartesian basis functions of A   symmetry.
 There are   457 symmetry adapted basis functions of A   symmetry.
   457 basis functions,   711 primitive gaussians,   473 cartesian basis functions
    59 alpha electrons       59 beta electrons
       nuclear repulsion energy      1050.1908757820 Hartrees.
 NAtoms=   31 NActive=   31 NUniq=   31 SFac= 1.00D+00 NAtFMM=   60 NAOKFM=F Big=F
 Integral buffers will be    131072 words long.
 Raffenetti 2 integral format.
 Two-electron integral symmetry is turned on.
 Nuclear repulsion after empirical dispersion term =     1050.1731578244 Hartrees.
 One-electron integrals computed using PRISM.
 NBasis=   457 RedAO= T EigKep=  1.42D-06  NBF=   457
 NBsUse=   454 1.00D-06 EigRej=  6.57D-07 NBFU=   454
 ExpMin= 3.60D-02 ExpMax= 8.59D+03 ExpMxC= 1.30D+03 IAcc=3 IRadAn=         5 AccDes= 0.00D+00
 Harris functional with IExCor= 4639 and IRadAn=       5 diagonalized for initial guess.
 HarFok:  IExCor= 4639 AccDes= 0.00D+00 IRadAn=         5 IDoV= 1 UseB2=F ITyADJ=14
 ICtDFT=  3500011 ScaDFX=  1.000000  1.000000  1.000000  1.000000
 FoFCou: FMM=F IPFlag=           0 FMFlag=      100000 FMFlg1=           0
         NFxFlg=           0 DoJE=T BraDBF=F KetDBF=T FulRan=T
         wScrn=  0.000000 ICntrl=     500 IOpCl=  0 I1Cent=   200000004 NGrid=           0
         NMat0=    1 NMatS0=      1 NMatT0=    0 NMatD0=    1 NMtDS0=    0 NMtDT0=    0
 Petite list used in FoFCou.
 Requested convergence on RMS density matrix=1.00D-08 within 128 cycles.
 Requested convergence on MAX density matrix=1.00D-06.
 Requested convergence on             energy=1.00D-06.
 No special actions if energy rises.
 SCF Done:  E(RwB97XD) =  -746.663287945     A.U. after   17 cycles
            NFock= 17  Conv=0.48D-08     -V/T= 2.0041

 **********************************************************************

            Population analysis using the SCF density.

 **********************************************************************

 Orbital symmetries:
       Occupied  (A) (A) (A) (A) (A) (A) (A) (A) (A) (A) (A) (A)
                 (A) (A) (A) (A) (A) (A) (A) (A) (A) (A) (A) (A)
                 (A) (A) (A) (A) (A) (A) (A) (A) (A) (A) (A) (A)
                 (A) (A) (A) (A) (A) (A) (A) (A) (A) (A) (A) (A)
                 (A) (A) (A) (A) (A) (A) (A) (A) (A) (A) (A)
       Virtual   (A) (A) (A) (A) (A) (A) (A) (A) (A) (A) (A) (A)
                 (A) (A) (A) (A) (A) (A) (A) (A) (A) (A) (A) (A)
                 (A) (A) (A) (A) (A) (A) (A) (A) (A) (A) (A) (A)
                 (A) (A) (A) (A) (A) (A) (A) (A) (A) (A) (A) (A)
                 (A) (A) (A) (A) (A) (A) (A) (A) (A) (A) (A) (A)
                 (A) (A) (A) (A) (A) (A) (A) (A) (A) (A) (A) (A)
                 (A) (A) (A) (A) (A) (A) (A) (A) (A) (A) (A) (A)
                 (A) (A) (A) (A) (A) (A) (A) (A) (A) (A) (A) (A)
                 (A) (A) (A) (A) (A) (A) (A) (A) (A) (A) (A) (A)
                 (A) (A) (A) (A) (A) (A) (A) (A) (A) (A) (A) (A)
                 (A) (A) (A) (A) (A) (A) (A) (A) (A) (A) (A) (A)
                 (A) (A) (A) (A) (A) (A) (A) (A) (A) (A) (A) (A)
                 (A) (A) (A) (A) (A) (A) (A) (A) (A) (A) (A) (A)
                 (A) (A) (A) (A) (A) (A) (A) (A) (A) (A) (A) (A)
                 (A) (A) (A) (A) (A) (A) (A) (A) (A) (A) (A) (A)
                 (A) (A) (A) (A) (A) (A) (A) (A) (A) (A) (A) (A)
                 (A) (A) (A) (A) (A) (A) (A) (A) (A) (A) (A) (A)
                 (A) (A) (A) (A) (A) (A) (A) (A) (A) (A) (A) (A)
                 (A) (A) (A) (A) (A) (A) (A) (A) (A) (A) (A) (A)
                 (A) (A) (A) (A) (A) (A) (A) (A) (A) (A) (A) (A)
                 (A) (A) (A) (A) (A) (A) (A) (A) (A) (A) (A) (A)
                 (A) (A) (A) (A) (A) (A) (A) (A) (A) (A) (A) (A)
                 (A) (A) (A) (A) (A) (A) (A) (A) (A) (A) (A) (A)
                 (A) (A) (A) (A) (A) (A) (A) (A) (A) (A) (A) (A)
                 (A) (A) (A) (A) (A) (A) (A) (A) (A) (A) (A) (A)
                 (A) (A) (A) (A) (A) (A) (A) (A) (A) (A) (A) (A)
                 (A) (A) (A) (A) (A) (A) (A) (A) (A) (A) (A) (A)
                 (A) (A) (A) (A) (A) (A) (A) (A) (A) (A) (A) (A)
                 (A) (A) (A) (A) (A) (A) (A) (A) (A) (A) (A) (A)
                 (A) (A) (A) (A) (A) (A) (A) (A) (A) (A) (A) (A)
                 (A) (A) (A) (A) (A) (A) (A) (A) (A) (A) (A) (A)
                 (A) (A) (A) (A) (A) (A) (A) (A) (A) (A) (A) (A)
                 (A) (A) (A) (A) (A) (A) (A) (A) (A) (A) (A)
 The electronic state is 1-A.
 Alpha  occ. eigenvalues --  -19.25949 -19.25155 -19.22319 -14.49055 -10.37451
 Alpha  occ. eigenvalues --  -10.35133 -10.34587 -10.33985 -10.33940 -10.33627
 Alpha  occ. eigenvalues --  -10.32863 -10.29610 -10.29598 -10.29544 -10.28354
 Alpha  occ. eigenvalues --  -10.27365  -1.16266  -1.13495  -1.12751  -1.08800
 Alpha  occ. eigenvalues --   -0.95915  -0.89473  -0.86675  -0.85260  -0.84539
 Alpha  occ. eigenvalues --   -0.80177  -0.77816  -0.74274  -0.70377  -0.68194
 Alpha  occ. eigenvalues --   -0.65189  -0.63146  -0.61212  -0.59910  -0.58505
 Alpha  occ. eigenvalues --   -0.58482  -0.57446  -0.54347  -0.54094  -0.52650
 Alpha  occ. eigenvalues --   -0.52145  -0.51834  -0.51613  -0.51320  -0.50560
 Alpha  occ. eigenvalues --   -0.49657  -0.49506  -0.47192  -0.46978  -0.46582
 Alpha  occ. eigenvalues --   -0.44074  -0.43015  -0.41678  -0.40312  -0.36237
 Alpha  occ. eigenvalues --   -0.33929  -0.33833  -0.29817  -0.28325
 Alpha virt. eigenvalues --    0.00092   0.02781   0.04273   0.04791   0.05649
 Alpha virt. eigenvalues --    0.05868   0.05931   0.06180   0.07445   0.07558
 Alpha virt. eigenvalues --    0.07939   0.08213   0.08550   0.08852   0.09196
 Alpha virt. eigenvalues --    0.09880   0.11221   0.11777   0.12263   0.12446
 Alpha virt. eigenvalues --    0.13053   0.13314   0.14163   0.14522   0.14795
 Alpha virt. eigenvalues --    0.15043   0.15130   0.15619   0.15852   0.16292
 Alpha virt. eigenvalues --    0.16789   0.17266   0.17564   0.17726   0.18203
 Alpha virt. eigenvalues --    0.18414   0.18530   0.19241   0.19350   0.19590
 Alpha virt. eigenvalues --    0.20348   0.20499   0.20634   0.21088   0.21466
 Alpha virt. eigenvalues --    0.21872   0.22342   0.22608   0.22900   0.23349
 Alpha virt. eigenvalues --    0.23926   0.24454   0.24774   0.25315   0.25506
 Alpha virt. eigenvalues --    0.25923   0.26264   0.26851   0.27163   0.27416
 Alpha virt. eigenvalues --    0.27802   0.28136   0.28295   0.28583   0.29306
 Alpha virt. eigenvalues --    0.29578   0.30628   0.30953   0.31626   0.31948
 Alpha virt. eigenvalues --    0.32644   0.32911   0.33355   0.33633   0.34174
 Alpha virt. eigenvalues --    0.34813   0.35027   0.35455   0.35767   0.36071
 Alpha virt. eigenvalues --    0.36613   0.37227   0.37430   0.38116   0.38861
 Alpha virt. eigenvalues --    0.39129   0.39439   0.40026   0.40204   0.40436
 Alpha virt. eigenvalues --    0.41036   0.41544   0.42193   0.43105   0.43499
 Alpha virt. eigenvalues --    0.43721   0.44595   0.45065   0.45978   0.46605
 Alpha virt. eigenvalues --    0.47848   0.48453   0.48767   0.49817   0.51138
 Alpha virt. eigenvalues --    0.51222   0.51835   0.52842   0.53508   0.55331
 Alpha virt. eigenvalues --    0.55943   0.56778   0.57792   0.59025   0.61120
 Alpha virt. eigenvalues --    0.62357   0.62803   0.64017   0.64081   0.64324
 Alpha virt. eigenvalues --    0.66093   0.66361   0.66927   0.67240   0.68324
 Alpha virt. eigenvalues --    0.69425   0.70094   0.70310   0.70883   0.71066
 Alpha virt. eigenvalues --    0.71795   0.71996   0.72348   0.72794   0.73406
 Alpha virt. eigenvalues --    0.74081   0.75488   0.75742   0.76360   0.76939
 Alpha virt. eigenvalues --    0.78478   0.78983   0.79440   0.80215   0.80390
 Alpha virt. eigenvalues --    0.81194   0.82627   0.82820   0.84407   0.86140
 Alpha virt. eigenvalues --    0.86622   0.88054   0.88147   0.89754   0.93163
 Alpha virt. eigenvalues --    0.94207   0.95374   0.95651   0.96052   0.97398
 Alpha virt. eigenvalues --    0.98986   0.99518   1.00161   1.00704   1.02245
 Alpha virt. eigenvalues --    1.03149   1.03760   1.04881   1.05503   1.08159
 Alpha virt. eigenvalues --    1.08530   1.11254   1.11284   1.11463   1.12575
 Alpha virt. eigenvalues --    1.13691   1.14460   1.15103   1.16315   1.16558
 Alpha virt. eigenvalues --    1.17850   1.18332   1.19582   1.20073   1.22413
 Alpha virt. eigenvalues --    1.23034   1.23837   1.27998   1.28908   1.32011
 Alpha virt. eigenvalues --    1.33248   1.33576   1.34583   1.36705   1.38323
 Alpha virt. eigenvalues --    1.38724   1.41655   1.42839   1.44235   1.45519
 Alpha virt. eigenvalues --    1.47259   1.48974   1.50714   1.51972   1.53016
 Alpha virt. eigenvalues --    1.53497   1.53698   1.56128   1.58094   1.58972
 Alpha virt. eigenvalues --    1.60464   1.61663   1.61899   1.62975   1.64486
 Alpha virt. eigenvalues --    1.65207   1.66007   1.66478   1.67534   1.67744
 Alpha virt. eigenvalues --    1.68265   1.69674   1.71530   1.71690   1.73125
 Alpha virt. eigenvalues --    1.74378   1.75968   1.77077   1.77757   1.78216
 Alpha virt. eigenvalues --    1.79636   1.80732   1.81237   1.82133   1.82917
 Alpha virt. eigenvalues --    1.84334   1.84496   1.85989   1.86650   1.87704
 Alpha virt. eigenvalues --    1.89798   1.91572   1.93783   1.94760   1.97176
 Alpha virt. eigenvalues --    1.97447   2.00114   2.02010   2.03405   2.04389
 Alpha virt. eigenvalues --    2.05019   2.05316   2.07124   2.07380   2.08292
 Alpha virt. eigenvalues --    2.10542   2.11224   2.12450   2.14212   2.15490
 Alpha virt. eigenvalues --    2.17666   2.19070   2.20031   2.21005   2.24237
 Alpha virt. eigenvalues --    2.24390   2.24847   2.26328   2.27571   2.30045
 Alpha virt. eigenvalues --    2.31348   2.32154   2.35757   2.39909   2.42006
 Alpha virt. eigenvalues --    2.42541   2.46923   2.47439   2.50859   2.51035
 Alpha virt. eigenvalues --    2.52507   2.53602   2.55262   2.56296   2.57564
 Alpha virt. eigenvalues --    2.59043   2.60615   2.62132   2.62231   2.64222
 Alpha virt. eigenvalues --    2.66291   2.66850   2.69691   2.70733   2.71429
 Alpha virt. eigenvalues --    2.72845   2.74534   2.74904   2.76431   2.77435
 Alpha virt. eigenvalues --    2.79066   2.80395   2.82610   2.83497   2.84656
 Alpha virt. eigenvalues --    2.85982   2.86816   2.87960   2.88225   2.90594
 Alpha virt. eigenvalues --    2.91161   2.94277   2.95171   2.95502   2.96089
 Alpha virt. eigenvalues --    2.99066   3.01281   3.02555   3.04780   3.07496
 Alpha virt. eigenvalues --    3.09481   3.11113   3.11790   3.13949   3.17487
 Alpha virt. eigenvalues --    3.19666   3.20840   3.22740   3.23627   3.25470
 Alpha virt. eigenvalues --    3.27239   3.30283   3.31827   3.32076   3.35088
 Alpha virt. eigenvalues --    3.38044   3.40162   3.43349   3.49244   3.53044
 Alpha virt. eigenvalues --    3.57687   3.61934   3.63914   3.67195   3.69059
 Alpha virt. eigenvalues --    3.72074   3.75559   3.76776   3.80430   3.81700
 Alpha virt. eigenvalues --    3.83552   3.85059   3.88433   3.90072   3.92105
 Alpha virt. eigenvalues --    3.93246   3.94908   4.04262   4.08980   4.12482
 Alpha virt. eigenvalues --    4.13935   4.18671   4.26184   4.29898   4.31243
 Alpha virt. eigenvalues --    4.40348   4.64761   4.95226   4.98698   5.14527
 Alpha virt. eigenvalues --    5.17976   5.19034   5.25880   5.43948   5.48253
 Alpha virt. eigenvalues --    5.63006   5.83061   5.91308   5.95527  23.71866
 Alpha virt. eigenvalues --   23.94756  24.03506  24.03921  24.04772  24.04941
 Alpha virt. eigenvalues --   24.07216  24.09321  24.15755  24.24265  24.30421
 Alpha virt. eigenvalues --   24.32804  35.70581  50.08668  50.14600  50.20243
          Condensed to atoms (all electrons):
               1          2          3          4          5          6
     1  C    5.262863   0.386514   0.417744  -0.080539   0.013616   0.241203
     2  H    0.386514   0.489943  -0.018843   0.004994  -0.006797  -0.048581
     3  H    0.417744  -0.018843   0.524147  -0.007839   0.000892  -0.055179
     4  C   -0.080539   0.004994  -0.007839   5.190174   0.392199   0.273772
     5  H    0.013616  -0.006797   0.000892   0.392199   0.562303  -0.049290
     6  N    0.241203  -0.048581  -0.055179   0.273772  -0.049290   6.850931
     7  H    0.417876  -0.021699  -0.052092   0.010281   0.001859  -0.034007
     8  H   -0.003904   0.003444  -0.000559   0.413839  -0.030458  -0.090562
     9  H   -0.013590  -0.003296   0.002993   0.413097  -0.065174  -0.050709
    10  C    0.087634   0.013184  -0.012213   0.028343  -0.040110   0.271655
    11  H    0.010273  -0.001057  -0.002213  -0.043929   0.004594  -0.068784
    12  C    0.295996   0.037080   0.000178  -0.155577   0.023749  -0.309019
    13  C   -0.310412  -0.017978   0.016098  -0.130798   0.004644  -0.016962
    14  H    0.008541   0.001236  -0.014340   0.002996  -0.000165  -0.008058
    15  O   -0.001131   0.000120   0.000199   0.001419  -0.000151   0.004474
    16  C   -0.272629  -0.007768   0.001839   0.023295  -0.001343   0.012125
    17  C   -0.046012  -0.000196  -0.000654   0.000566  -0.000366   0.009321
    18  C    0.049385  -0.002397   0.007174  -0.031981   0.000677  -0.053533
    19  O   -0.000046  -0.000004   0.000043   0.000261   0.000006  -0.000142
    20  C    0.007188   0.000306  -0.000655  -0.001576   0.000038  -0.001542
    21  C   -0.024804  -0.001038   0.000038   0.004693  -0.000106   0.009235
    22  H    0.007823   0.000091   0.001416  -0.005755   0.000057  -0.017242
    23  H   -0.001155  -0.000091   0.000102  -0.000011   0.000002  -0.000248
    24  H    0.000122   0.000004  -0.000008  -0.000005   0.000001  -0.000048
    25  C   -0.013068  -0.000405  -0.000481   0.000543  -0.000019   0.004429
    26  H   -0.000181  -0.000007   0.000002   0.000009   0.000000   0.000031
    27  O   -0.000077  -0.000008  -0.000051  -0.000012   0.000000  -0.000048
    28  C   -0.000188  -0.000012   0.000036   0.000008   0.000000   0.000012
    29  H    0.000034   0.000001   0.000003  -0.000001   0.000000  -0.000006
    30  H   -0.000090  -0.000007   0.000050   0.000005   0.000000  -0.000005
    31  H    0.000000   0.000001  -0.000023   0.000002   0.000000   0.000013
               7          8          9         10         11         12
     1  C    0.417876  -0.003904  -0.013590   0.087634   0.010273   0.295996
     2  H   -0.021699   0.003444  -0.003296   0.013184  -0.001057   0.037080
     3  H   -0.052092  -0.000559   0.002993  -0.012213  -0.002213   0.000178
     4  C    0.010281   0.413839   0.413097   0.028343  -0.043929  -0.155577
     5  H    0.001859  -0.030458  -0.065174  -0.040110   0.004594   0.023749
     6  N   -0.034007  -0.090562  -0.050709   0.271655  -0.068784  -0.309019
     7  H    0.533278  -0.003105  -0.001316   0.029392   0.002910  -0.044975
     8  H   -0.003105   0.534064  -0.021665   0.062668  -0.009829  -0.013334
     9  H   -0.001316  -0.021665   0.562201  -0.004495   0.000572   0.006298
    10  C    0.029392   0.062668  -0.004495  13.587913   0.179028   1.942908
    11  H    0.002910  -0.009829   0.000572   0.179028   0.475788   0.180000
    12  C   -0.044975  -0.013334   0.006298   1.942908   0.180000  15.845368
    13  C   -0.027143   0.006996   0.000075  -4.758066   0.149417   1.665473
    14  H    0.013064  -0.001398   0.001132   0.398455  -0.008466   0.508274
    15  O    0.000609   0.000528   0.000062   0.099921   0.008526  -0.272802
    16  C   -0.005660   0.010582   0.001164  -1.876124  -0.100591  -6.219899
    17  C   -0.000896   0.004874  -0.000114  -1.300236  -0.088029  -4.648763
    18  C   -0.001059  -0.006321   0.000209  -2.960321   0.091372  -0.552835
    19  O    0.000015  -0.000080   0.000002   0.007294   0.000043  -0.032885
    20  C   -0.000621  -0.000088  -0.000001  -0.345204   0.000768   0.071902
    21  C    0.003349   0.000404  -0.000027   0.426242  -0.008722  -1.031483
    22  H   -0.004251  -0.000113  -0.000090  -0.382728   0.006994  -0.077138
    23  H   -0.000008   0.000068   0.000033  -0.016949   0.000613  -0.012916
    24  H   -0.000014  -0.000001   0.000000  -0.001890  -0.000088   0.010866
    25  C    0.000689   0.000223  -0.000004  -0.035586  -0.006822  -0.825980
    26  H    0.000023   0.000001   0.000000   0.000343  -0.000008  -0.009882
    27  O   -0.000062  -0.000001   0.000000  -0.001128  -0.000029   0.000485
    28  C   -0.000064  -0.000001   0.000000  -0.001453  -0.000016  -0.015260
    29  H   -0.000012   0.000000   0.000000  -0.000266  -0.000002   0.000692
    30  H    0.000014  -0.000001   0.000001  -0.000110   0.000008  -0.002568
    31  H   -0.000001   0.000000   0.000000   0.000637  -0.000001   0.002450
              13         14         15         16         17         18
     1  C   -0.310412   0.008541  -0.001131  -0.272629  -0.046012   0.049385
     2  H   -0.017978   0.001236   0.000120  -0.007768  -0.000196  -0.002397
     3  H    0.016098  -0.014340   0.000199   0.001839  -0.000654   0.007174
     4  C   -0.130798   0.002996   0.001419   0.023295   0.000566  -0.031981
     5  H    0.004644  -0.000165  -0.000151  -0.001343  -0.000366   0.000677
     6  N   -0.016962  -0.008058   0.004474   0.012125   0.009321  -0.053533
     7  H   -0.027143   0.013064   0.000609  -0.005660  -0.000896  -0.001059
     8  H    0.006996  -0.001398   0.000528   0.010582   0.004874  -0.006321
     9  H    0.000075   0.001132   0.000062   0.001164  -0.000114   0.000209
    10  C   -4.758066   0.398455   0.099921  -1.876124  -1.300236  -2.960321
    11  H    0.149417  -0.008466   0.008526  -0.100591  -0.088029   0.091372
    12  C    1.665473   0.508274  -0.272802  -6.219899  -4.648763  -0.552835
    13  C   15.735812  -0.142897   0.908474   0.754089  -5.136325   1.049961
    14  H   -0.142897   0.855664  -0.012654   0.260920   0.083868  -0.991778
    15  O    0.908474  -0.012654   8.134836  -0.145698  -0.160111  -0.236799
    16  C    0.754089   0.260920  -0.145698  23.867446   2.651910 -11.290099
    17  C   -5.136325   0.083868  -0.160111   2.651910  21.172553  -8.807101
    18  C    1.049961  -0.991778  -0.236799 -11.290099  -8.807101  32.106714
    19  O   -0.069052  -0.000921   0.001223   0.132200   0.326932   0.010892
    20  C   -0.332433  -0.051879  -0.067622  -3.437278  -0.212737   3.247952
    21  C   -1.252873  -0.020995   0.015480  -1.629743   1.067781   0.420114
    22  H    0.077899  -0.178881  -0.000253  -0.910542  -0.169537   2.241087
    23  H    0.019032  -0.005545   0.071013  -0.156875   0.013802   0.070569
    24  H    0.023213  -0.001074   0.000932  -0.106388  -0.157466   0.087623
    25  C   -1.607889   0.159563  -0.024382   2.218229   1.214384  -6.031275
    26  H   -0.010447   0.001463  -0.000224   0.158026   0.036709  -0.201901
    27  O   -0.003952   0.010911   0.000025   0.080441   0.031073  -0.141163
    28  C   -0.015381   0.000333   0.000061  -0.070380   0.035740  -0.060690
    29  H   -0.001651   0.000016  -0.000010  -0.020159  -0.000453  -0.001755
    30  H    0.007226  -0.001273   0.000039   0.042744   0.001151   0.064998
    31  H    0.001529   0.001512   0.000006   0.014618   0.000760  -0.026205
              19         20         21         22         23         24
     1  C   -0.000046   0.007188  -0.024804   0.007823  -0.001155   0.000122
     2  H   -0.000004   0.000306  -0.001038   0.000091  -0.000091   0.000004
     3  H    0.000043  -0.000655   0.000038   0.001416   0.000102  -0.000008
     4  C    0.000261  -0.001576   0.004693  -0.005755  -0.000011  -0.000005
     5  H    0.000006   0.000038  -0.000106   0.000057   0.000002   0.000001
     6  N   -0.000142  -0.001542   0.009235  -0.017242  -0.000248  -0.000048
     7  H    0.000015  -0.000621   0.003349  -0.004251  -0.000008  -0.000014
     8  H   -0.000080  -0.000088   0.000404  -0.000113   0.000068  -0.000001
     9  H    0.000002  -0.000001  -0.000027  -0.000090   0.000033   0.000000
    10  C    0.007294  -0.345204   0.426242  -0.382728  -0.016949  -0.001890
    11  H    0.000043   0.000768  -0.008722   0.006994   0.000613  -0.000088
    12  C   -0.032885   0.071902  -1.031483  -0.077138  -0.012916   0.010866
    13  C   -0.069052  -0.332433  -1.252873   0.077899   0.019032   0.023213
    14  H   -0.000921  -0.051879  -0.020995  -0.178881  -0.005545  -0.001074
    15  O    0.001223  -0.067622   0.015480  -0.000253   0.071013   0.000932
    16  C    0.132200  -3.437278  -1.629743  -0.910542  -0.156875  -0.106388
    17  C    0.326932  -0.212737   1.067781  -0.169537   0.013802  -0.157466
    18  C    0.010892   3.247952   0.420114   2.241087   0.070569   0.087623
    19  O    8.089760  -0.407454  -0.001973  -0.002296   0.260526  -0.027829
    20  C   -0.407454   8.990424   0.038892   0.210024   0.068753   0.561999
    21  C   -0.001973   0.038892  10.409642  -0.167622   0.025768   0.050011
    22  H   -0.002296   0.210024  -0.167622   0.772389   0.005900   0.005112
    23  H    0.260526   0.068753   0.025768   0.005900   0.302817   0.001831
    24  H   -0.027829   0.561999   0.050011   0.005112   0.001831   0.466548
    25  C    0.009756  -1.789925  -1.735779  -0.494835  -0.009727  -0.135680
    26  H    0.001584  -0.110044  -0.295480  -0.010248  -0.000806  -0.018092
    27  O    0.000331   0.023060   0.451803  -0.061111   0.000440   0.000180
    28  C    0.000325   0.012291  -0.099961   0.000890   0.000212  -0.000320
    29  H   -0.000186  -0.021426   0.060065   0.001252   0.000036   0.000970
    30  H    0.000101   0.014811  -0.111957  -0.002651  -0.000088  -0.000323
    31  H    0.000020  -0.003775   0.018768  -0.005325  -0.000030  -0.000011
              25         26         27         28         29         30
     1  C   -0.013068  -0.000181  -0.000077  -0.000188   0.000034  -0.000090
     2  H   -0.000405  -0.000007  -0.000008  -0.000012   0.000001  -0.000007
     3  H   -0.000481   0.000002  -0.000051   0.000036   0.000003   0.000050
     4  C    0.000543   0.000009  -0.000012   0.000008  -0.000001   0.000005
     5  H   -0.000019   0.000000   0.000000   0.000000   0.000000   0.000000
     6  N    0.004429   0.000031  -0.000048   0.000012  -0.000006  -0.000005
     7  H    0.000689   0.000023  -0.000062  -0.000064  -0.000012   0.000014
     8  H    0.000223   0.000001  -0.000001  -0.000001   0.000000  -0.000001
     9  H   -0.000004   0.000000   0.000000   0.000000   0.000000   0.000001
    10  C   -0.035586   0.000343  -0.001128  -0.001453  -0.000266  -0.000110
    11  H   -0.006822  -0.000008  -0.000029  -0.000016  -0.000002   0.000008
    12  C   -0.825980  -0.009882   0.000485  -0.015260   0.000692  -0.002568
    13  C   -1.607889  -0.010447  -0.003952  -0.015381  -0.001651   0.007226
    14  H    0.159563   0.001463   0.010911   0.000333   0.000016  -0.001273
    15  O   -0.024382  -0.000224   0.000025   0.000061  -0.000010   0.000039
    16  C    2.218229   0.158026   0.080441  -0.070380  -0.020159   0.042744
    17  C    1.214384   0.036709   0.031073   0.035740  -0.000453   0.001151
    18  C   -6.031275  -0.201901  -0.141163  -0.060690  -0.001755   0.064998
    19  O    0.009756   0.001584   0.000331   0.000325  -0.000186   0.000101
    20  C   -1.789925  -0.110044   0.023060   0.012291  -0.021426   0.014811
    21  C   -1.735779  -0.295480   0.451803  -0.099961   0.060065  -0.111957
    22  H   -0.494835  -0.010248  -0.061111   0.000890   0.001252  -0.002651
    23  H   -0.009727  -0.000806   0.000440   0.000212   0.000036  -0.000088
    24  H   -0.135680  -0.018092   0.000180  -0.000320   0.000970  -0.000323
    25  C   14.275921   0.753918  -0.255133   0.075725  -0.019681  -0.016480
    26  H    0.753918   0.525907  -0.015748  -0.001732  -0.008249   0.002236
    27  O   -0.255133  -0.015748   8.036230   0.153011  -0.038480  -0.051541
    28  C    0.075725  -0.001732   0.153011   5.100025   0.394572   0.410826
    29  H   -0.019681  -0.008249  -0.038480   0.394572   0.628333  -0.067288
    30  H   -0.016480   0.002236  -0.051541   0.410826  -0.067288   0.587522
    31  H    0.012030  -0.000830  -0.060955   0.411404  -0.030143  -0.025202
              31
     1  C    0.000000
     2  H    0.000001
     3  H   -0.000023
     4  C    0.000002
     5  H    0.000000
     6  N    0.000013
     7  H   -0.000001
     8  H    0.000000
     9  H    0.000000
    10  C    0.000637
    11  H   -0.000001
    12  C    0.002450
    13  C    0.001529
    14  H    0.001512
    15  O    0.000006
    16  C    0.014618
    17  C    0.000760
    18  C   -0.026205
    19  O    0.000020
    20  C   -0.003775
    21  C    0.018768
    22  H   -0.005325
    23  H   -0.000030
    24  H   -0.000011
    25  C    0.012030
    26  H   -0.000830
    27  O   -0.060955
    28  C    0.411404
    29  H   -0.030143
    30  H   -0.025202
    31  H    0.524206
 Mulliken charges:
               1
     1  C   -0.438989
     2  H    0.193267
     3  H    0.192199
     4  C   -0.302469
     5  H    0.189342
     6  N    0.126764
     7  H    0.183625
     8  H    0.143729
     9  H    0.172641
    10  C    0.601262
    11  H    0.227680
    12  C   -0.366404
    13  C   -0.585679
    14  H    0.132376
    15  O   -0.326112
    16  C    2.021545
    17  C    0.077569
    18  C   -2.051515
    19  O   -0.298446
    20  C   -0.464150
    21  C   -0.619724
    22  H    0.159684
    23  H    0.362933
    24  H    0.239827
    25  C    0.277741
    26  H    0.203627
    27  O   -0.158493
    28  C   -0.330015
    29  H    0.123792
    30  H    0.147850
    31  H    0.164543
 Sum of Mulliken charges =   0.00000
 Mulliken charges with hydrogens summed into heavy atoms:
               1
     1  C    0.130103
     4  C    0.203243
     6  N    0.126764
    10  C    0.828942
    12  C   -0.234028
    13  C   -0.585679
    15  O   -0.326112
    16  C    2.021545
    17  C    0.077569
    18  C   -1.891831
    19  O    0.064487
    20  C   -0.224323
    21  C   -0.619724
    25  C    0.481368
    27  O   -0.158493
    28  C    0.106170
 Electronic spatial extent (au):  <R**2>=           5309.9886
 Charge=              0.0000 electrons
 Dipole moment (field-independent basis, Debye):
    X=             -4.3313    Y=             -4.3077    Z=              0.8254  Tot=              6.1642
 Quadrupole moment (field-independent basis, Debye-Ang):
   XX=            -60.0394   YY=           -100.4483   ZZ=            -99.3531
   XY=              3.9778   XZ=              4.3741   YZ=             -3.6303
 Traceless Quadrupole moment (field-independent basis, Debye-Ang):
   XX=             26.5742   YY=            -13.8347   ZZ=            -12.7395
   XY=              3.9778   XZ=              4.3741   YZ=             -3.6303
 Octapole moment (field-independent basis, Debye-Ang**2):
  XXX=            -91.9563  YYY=            -41.9421  ZZZ=              1.6980  XYY=            -14.7307
  XXY=            -28.6063  XXZ=             11.6530  XZZ=             -7.3500  YZZ=              0.2610
  YYZ=              7.1880  XYZ=            -12.5371
 Hexadecapole moment (field-independent basis, Debye-Ang**3):
 XXXX=          -4222.7271 YYYY=          -1671.0942 ZZZZ=           -159.8260 XXXY=             25.3135
 XXXZ=             34.9038 YYYX=            -53.3102 YYYZ=            -18.9438 ZZZX=              6.3273
 ZZZY=              2.7404 XXYY=          -1043.2745 XXZZ=           -937.3521 YYZZ=           -304.0479
 XXYZ=            -37.5520 YYXZ=             24.9582 ZZXY=             -3.8013
 N-N= 1.050173157824D+03 E-N=-3.843107986228D+03  KE= 7.436127426894D+02
 Calling FoFJK, ICntrl=      2127 FMM=F ISym2X=0 I1Cent= 0 IOpClX= 0 NMat=1 NMatS=1 NMatT=0.
 ***** Axes restored to original set *****
 -------------------------------------------------------------------
 Center     Atomic                   Forces (Hartrees/Bohr)
 Number     Number              X              Y              Z
 -------------------------------------------------------------------
      1        6           0.000001937    0.000168390    0.000424650
      2        1          -0.000009291    0.000014842   -0.000081931
      3        1           0.000063123   -0.000102378   -0.000117557
      4        6           0.000075629    0.000007148   -0.000054830
      5        1          -0.000011196   -0.000064042   -0.000000126
      6        7          -0.000451701   -0.000313111   -0.000180467
      7        1          -0.000129915    0.000050588   -0.000054937
      8        1          -0.000039956    0.000071498   -0.000078570
      9        1          -0.000001000   -0.000047881    0.000035981
     10        6           0.000803587    0.000361427   -0.000132385
     11        1          -0.000060577   -0.000086000    0.000072184
     12        6          -0.001014640   -0.000571724    0.000065928
     13        6           0.001532001    0.001224688    0.000318256
     14        1          -0.000068602    0.000136422    0.000097822
     15        8          -0.000645132   -0.000280539    0.000480925
     16        6          -0.005176070   -0.001374814   -0.001254755
     17        6           0.001230172    0.000624366    0.000225422
     18        6           0.000486034    0.003338655    0.006749006
     19        8           0.000186209   -0.000708750   -0.001262660
     20        6           0.002547625    0.001368010    0.000466432
     21        6          -0.008684860   -0.000634796    0.031796396
     22        1          -0.001534227   -0.000414091    0.001667023
     23        1          -0.000213303   -0.000021221   -0.000019205
     24        1          -0.000397836    0.000352280    0.000604400
     25        6          -0.002221790    0.000186045    0.002463142
     26        1           0.000036465    0.000733741    0.000394502
     27        8           0.012172316   -0.002726299   -0.033395514
     28        6           0.001392996   -0.001817096   -0.008259314
     29        1           0.000564638    0.000226534    0.000968703
     30        1          -0.000182260    0.000562274   -0.001036125
     31        1          -0.000250373   -0.000264165   -0.000902397
 -------------------------------------------------------------------
 Cartesian Forces:  Max     0.033395514 RMS     0.005246534

 GradGradGradGradGradGradGradGradGradGradGradGradGradGradGradGradGradGrad
 Berny optimization.
 FormGI is forming the generalized inverse of G from B-inverse, IUseBI=4.
 Internal  Forces:  Max     0.043604443 RMS     0.004260894
 Search for a local minimum.
 Step number   1 out of a maximum of  150
 All quantities printed in internal units (Hartrees-Bohrs-Radians)
 Mixed Optimization -- RFO/linear search
 Second derivative matrix not updated -- first step.
 ITU=  0
     Eigenvalues ---    0.00947   0.01033   0.01057   0.01163   0.01187
     Eigenvalues ---    0.01420   0.01445   0.01453   0.01654   0.01964
     Eigenvalues ---    0.02017   0.02025   0.02087   0.02168   0.02193
     Eigenvalues ---    0.02216   0.02254   0.02282   0.02448   0.02529
     Eigenvalues ---    0.02572   0.02608   0.07401   0.07416   0.07589
     Eigenvalues ---    0.07635   0.10007   0.10623   0.15999   0.16000
     Eigenvalues ---    0.16000   0.16000   0.16000   0.16000   0.16000
     Eigenvalues ---    0.16000   0.16000   0.16000   0.16000   0.16000
     Eigenvalues ---    0.16000   0.16000   0.16000   0.22000   0.22000
     Eigenvalues ---    0.22362   0.23484   0.24597   0.24709   0.24813
     Eigenvalues ---    0.25000   0.25000   0.25000   0.25000   0.25000
     Eigenvalues ---    0.25000   0.33854   0.33934   0.33934   0.34060
     Eigenvalues ---    0.34124   0.34348   0.34392   0.34695   0.34839
     Eigenvalues ---    0.34840   0.35249   0.35436   0.35580   0.35695
     Eigenvalues ---    0.36128   0.38168   0.38269   0.38508   0.39585
     Eigenvalues ---    0.40994   0.42174   0.42754   0.44543   0.45628
     Eigenvalues ---    0.47852   0.48793   0.50064   0.52796   0.56581
     Eigenvalues ---    0.58702   0.85398
 RFO step:  Lambda=-7.31794357D-03 EMin= 9.46683084D-03
 Linear search not attempted -- first point.
 Iteration  1 RMS(Cart)=  0.04544732 RMS(Int)=  0.00050529
 Iteration  2 RMS(Cart)=  0.00078989 RMS(Int)=  0.00010558
 Iteration  3 RMS(Cart)=  0.00000131 RMS(Int)=  0.00010558
 Iteration  4 RMS(Cart)=  0.00000000 RMS(Int)=  0.00010558
 Variable       Old X    -DE/DX   Delta X   Delta X   Delta X     New X
                                 (Linear)    (Quad)   (Total)
    R1        2.05937  -0.00002   0.00000  -0.00006  -0.00006   2.05931
    R2        2.07229  -0.00012   0.00000  -0.00034  -0.00034   2.07195
    R3        2.73633   0.00021   0.00000   0.00055   0.00055   2.73688
    R4        2.06747  -0.00004   0.00000  -0.00012  -0.00012   2.06734
    R5        2.07121  -0.00006   0.00000  -0.00016  -0.00016   2.07105
    R6        2.73975   0.00007   0.00000   0.00017   0.00017   2.73992
    R7        2.05935   0.00003   0.00000   0.00008   0.00008   2.05943
    R8        2.06674   0.00002   0.00000   0.00006   0.00006   2.06680
    R9        2.53753  -0.00054   0.00000  -0.00093  -0.00093   2.53660
   R10        2.05273  -0.00004   0.00000  -0.00012  -0.00012   2.05261
   R11        2.57145   0.00029   0.00000   0.00055   0.00055   2.57199
   R12        2.74121  -0.00077   0.00000  -0.00197  -0.00197   2.73924
   R13        2.03881   0.00015   0.00000   0.00041   0.00041   2.03923
   R14        2.35129  -0.00048   0.00000  -0.00056  -0.00056   2.35073
   R15        2.80877  -0.00016   0.00000  -0.00048  -0.00048   2.80829
   R16        2.67522  -0.00061   0.00000  -0.00110  -0.00117   2.67405
   R17        2.65273   0.00005   0.00000   0.00001   0.00001   2.65273
   R18        2.51982   0.00142   0.00000   0.00239   0.00239   2.52222
   R19        2.64716   0.00012   0.00000   0.00061   0.00056   2.64772
   R20        2.60837  -0.00683   0.00000  -0.01404  -0.01399   2.59438
   R21        2.04561  -0.00029   0.00000  -0.00080  -0.00080   2.04481
   R22        1.86500  -0.00020   0.00000  -0.00039  -0.00039   1.86461
   R23        2.04743  -0.00027   0.00000  -0.00076  -0.00076   2.04668
   R24        2.60570  -0.00046   0.00000  -0.00085  -0.00085   2.60486
   R25        2.64025  -0.00308   0.00000  -0.00685  -0.00679   2.63346
   R26        2.72121  -0.04360   0.00000  -0.10815  -0.10815   2.61305
   R27        2.04973  -0.00005   0.00000  -0.00013  -0.00013   2.04959
   R28        2.67975  -0.00592   0.00000  -0.01361  -0.01361   2.66614
   R29        2.07441  -0.00080   0.00000  -0.00232  -0.00232   2.07209
   R30        2.07441  -0.00065   0.00000  -0.00186  -0.00186   2.07255
   R31        2.06172  -0.00083   0.00000  -0.00235  -0.00235   2.05937
    A1        1.89778   0.00007   0.00000   0.00023   0.00023   1.89801
    A2        1.90734  -0.00004   0.00000  -0.00008  -0.00008   1.90726
    A3        1.89247   0.00011   0.00000   0.00116   0.00116   1.89363
    A4        1.94383  -0.00019   0.00000  -0.00142  -0.00142   1.94241
    A5        1.89422   0.00002   0.00000  -0.00020  -0.00020   1.89402
    A6        1.92725   0.00005   0.00000   0.00039   0.00039   1.92764
    A7        1.94330  -0.00002   0.00000  -0.00021  -0.00021   1.94309
    A8        1.89324  -0.00005   0.00000  -0.00054  -0.00054   1.89270
    A9        1.89507   0.00004   0.00000   0.00027   0.00027   1.89534
   A10        1.91301   0.00004   0.00000   0.00020   0.00020   1.91321
   A11        1.92686  -0.00004   0.00000  -0.00014  -0.00014   1.92671
   A12        1.89127   0.00004   0.00000   0.00044   0.00044   1.89170
   A13        2.05809   0.00008   0.00000   0.00025   0.00025   2.05833
   A14        2.09865  -0.00003   0.00000  -0.00019  -0.00019   2.09846
   A15        2.11639  -0.00005   0.00000  -0.00028  -0.00028   2.11610
   A16        2.01826   0.00017   0.00000   0.00091   0.00091   2.01917
   A17        2.21640  -0.00015   0.00000  -0.00068  -0.00068   2.21572
   A18        2.04850  -0.00002   0.00000  -0.00023  -0.00023   2.04827
   A19        2.06361   0.00003   0.00000   0.00012   0.00012   2.06373
   A20        2.11463  -0.00002   0.00000  -0.00009  -0.00009   2.11454
   A21        2.10489  -0.00001   0.00000  -0.00006  -0.00006   2.10483
   A22        2.10544   0.00102   0.00000   0.00396   0.00396   2.10940
   A23        2.09966  -0.00044   0.00000  -0.00170  -0.00170   2.09797
   A24        2.07807  -0.00058   0.00000  -0.00226  -0.00226   2.07581
   A25        2.08125   0.00062   0.00000   0.00201   0.00202   2.08327
   A26        2.14390  -0.00193   0.00000  -0.00790  -0.00789   2.13601
   A27        2.05803   0.00131   0.00000   0.00589   0.00586   2.06389
   A28        2.14230   0.00118   0.00000   0.00379   0.00382   2.14613
   A29        2.09225  -0.00135   0.00000  -0.00361  -0.00369   2.08855
   A30        2.04863   0.00016   0.00000  -0.00018  -0.00015   2.04848
   A31        2.12919  -0.00312   0.00000  -0.01410  -0.01402   2.11517
   A32        2.08898   0.00385   0.00000   0.02078   0.02071   2.10969
   A33        2.06501  -0.00074   0.00000  -0.00667  -0.00673   2.05828
   A34        1.85525   0.00008   0.00000   0.00045   0.00045   1.85570
   A35        2.05702   0.00050   0.00000   0.00267   0.00265   2.05967
   A36        2.10303   0.00050   0.00000   0.00360   0.00358   2.10661
   A37        2.12314  -0.00100   0.00000  -0.00626  -0.00628   2.11686
   A38        2.08060   0.00567   0.00000   0.02132   0.02119   2.10179
   A39        2.09982  -0.00793   0.00000  -0.03047  -0.03083   2.06899
   A40        2.10276   0.00227   0.00000   0.00917   0.00877   2.11153
   A41        2.10326  -0.00301   0.00000  -0.01311  -0.01302   2.09024
   A42        2.08676   0.00223   0.00000   0.01089   0.01081   2.09756
   A43        2.09317   0.00078   0.00000   0.00222   0.00214   2.09531
   A44        2.06284  -0.01946   0.00000  -0.07563  -0.07563   1.98721
   A45        1.94999   0.00141   0.00000   0.00839   0.00839   1.95838
   A46        1.94999  -0.00151   0.00000  -0.00913  -0.00912   1.94087
   A47        1.85102  -0.00020   0.00000  -0.00110  -0.00110   1.84992
   A48        1.90154  -0.00001   0.00000  -0.00027  -0.00026   1.90129
   A49        1.90501  -0.00047   0.00000  -0.00266  -0.00266   1.90235
   A50        1.90501   0.00080   0.00000   0.00484   0.00484   1.90985
    D1       -0.23535   0.00001   0.00000  -0.00177  -0.00177  -0.23712
    D2        3.05628   0.00005   0.00000  -0.00005  -0.00005   3.05623
    D3        1.86173  -0.00004   0.00000  -0.00244  -0.00244   1.85929
    D4       -1.12983   0.00000   0.00000  -0.00072  -0.00072  -1.13055
    D5       -2.31559  -0.00012   0.00000  -0.00337  -0.00337  -2.31896
    D6        0.97604  -0.00008   0.00000  -0.00165  -0.00165   0.97439
    D7       -1.11509   0.00004   0.00000   0.00290   0.00290  -1.11219
    D8        1.87486   0.00000   0.00000   0.00118   0.00118   1.87603
    D9        3.07328   0.00009   0.00000   0.00358   0.00358   3.07686
   D10       -0.21995   0.00006   0.00000   0.00185   0.00185  -0.21810
   D11        0.99124   0.00005   0.00000   0.00300   0.00300   0.99424
   D12       -2.30200   0.00001   0.00000   0.00128   0.00128  -2.30072
   D13        3.11800  -0.00007   0.00000  -0.00271  -0.00271   3.11528
   D14       -0.03175  -0.00010   0.00000  -0.00361  -0.00361  -0.03535
   D15        0.13154  -0.00004   0.00000  -0.00098  -0.00098   0.13055
   D16       -3.01821  -0.00007   0.00000  -0.00188  -0.00188  -3.02009
   D17       -3.12117  -0.00013   0.00000  -0.00430  -0.00430  -3.12548
   D18        0.03168  -0.00005   0.00000  -0.00109  -0.00109   0.03059
   D19        0.01214  -0.00016   0.00000  -0.00521  -0.00521   0.00694
   D20       -3.11819  -0.00008   0.00000  -0.00199  -0.00199  -3.12018
   D21        0.01311  -0.00006   0.00000  -0.00305  -0.00305   0.01006
   D22       -3.12377  -0.00006   0.00000  -0.00343  -0.00344  -3.12720
   D23       -3.13968  -0.00015   0.00000  -0.00624  -0.00624   3.13727
   D24        0.00663  -0.00015   0.00000  -0.00663  -0.00663   0.00000
   D25        3.12933  -0.00022   0.00000  -0.01417  -0.01414   3.11519
   D26       -0.01324  -0.00032   0.00000  -0.01797  -0.01800  -0.03124
   D27       -0.00762  -0.00023   0.00000  -0.01457  -0.01454  -0.02216
   D28        3.13299  -0.00033   0.00000  -0.01837  -0.01840   3.11460
   D29        0.00038   0.00003   0.00000   0.00112   0.00111   0.00149
   D30       -3.14086   0.00021   0.00000   0.00791   0.00792  -3.13294
   D31       -3.14029   0.00013   0.00000   0.00475   0.00482  -3.13547
   D32        0.00166   0.00030   0.00000   0.01154   0.01163   0.01329
   D33        3.14143  -0.00024   0.00000  -0.00769  -0.00771   3.13372
   D34       -0.00066   0.00007   0.00000   0.00296   0.00292   0.00226
   D35       -0.00113  -0.00034   0.00000  -0.01145  -0.01152  -0.01265
   D36        3.13997  -0.00003   0.00000  -0.00080  -0.00090   3.13907
   D37        0.00352   0.00002   0.00000   0.00117   0.00118   0.00470
   D38       -3.13842  -0.00016   0.00000  -0.00546  -0.00548   3.13929
   D39        3.14113  -0.00035   0.00000  -0.01300  -0.01306   3.12808
   D40       -0.00121  -0.00002   0.00000  -0.00192  -0.00183  -0.00305
   D41       -0.00013  -0.00018   0.00000  -0.00657  -0.00662  -0.00675
   D42        3.14072   0.00015   0.00000   0.00451   0.00460  -3.13787
   D43        0.00011   0.00009   0.00000   0.00153   0.00145   0.00157
   D44        3.14133   0.00134   0.00000   0.04658   0.04614  -3.09572
   D45       -3.14099  -0.00022   0.00000  -0.00899  -0.00888   3.13332
   D46        0.00022   0.00103   0.00000   0.03607   0.03581   0.03603
   D47        0.00017  -0.00024   0.00000  -0.00834  -0.00842  -0.00824
   D48        3.14158  -0.00061   0.00000  -0.02019  -0.02039   3.12120
   D49        3.14098   0.00011   0.00000   0.00317   0.00318  -3.13902
   D50       -0.00079  -0.00026   0.00000  -0.00868  -0.00879  -0.00958
   D51        0.00038   0.00021   0.00000   0.00858   0.00868   0.00907
   D52       -3.14103   0.00058   0.00000   0.02047   0.02064  -3.12039
   D53       -3.14083  -0.00105   0.00000  -0.03655  -0.03709   3.10527
   D54        0.00095  -0.00067   0.00000  -0.02466  -0.02513  -0.02419
   D55       -2.06289  -0.00064   0.00000  -0.02298  -0.02263  -2.08552
   D56        1.07831   0.00063   0.00000   0.02266   0.02231   1.10063
   D57       -1.06771  -0.00005   0.00000  -0.00439  -0.00438  -1.07210
   D58        1.06771  -0.00015   0.00000  -0.00528  -0.00530   1.06242
   D59        3.14159  -0.00013   0.00000  -0.00511  -0.00510   3.13649
         Item               Value     Threshold  Converged?
 Maximum Force            0.043604     0.000450     NO 
 RMS     Force            0.004261     0.000300     NO 
 Maximum Displacement     0.243699     0.001800     NO 
 RMS     Displacement     0.045758     0.001200     NO 
 Predicted change in Energy=-3.770098D-03
 GradGradGradGradGradGradGradGradGradGradGradGradGradGradGradGradGradGrad

                          Input orientation:                          
 ---------------------------------------------------------------------
 Center     Atomic      Atomic             Coordinates (Angstroms)
 Number     Number       Type             X           Y           Z
 ---------------------------------------------------------------------
      1          6           0       -0.026242    0.277930    8.598193
      2          1           0        0.921322    0.740281    8.873668
      3          1           0       -0.808227    1.046446    8.604137
      4          6           0        1.258858    0.015247    6.489482
      5          1           0        1.257821    1.079580    6.228129
      6          7           0        0.101604   -0.332163    7.290909
      7          1           0       -0.275406   -0.477151    9.349583
      8          1           0        1.253497   -0.566134    5.567722
      9          1           0        2.180608   -0.209348    7.033655
     10          6           0       -0.909892   -1.050563    6.778485
     11          1           0       -0.744641   -1.453178    5.783293
     12          6           0       -2.100492   -1.329263    7.376173
     13          6           0       -3.056256   -2.145261    6.653788
     14          1           0       -2.336922   -0.944088    8.356082
     15          8           0       -2.790602   -2.587989    5.522046
     16          6           0       -4.376891   -2.461091    7.257629
     17          6           0       -5.308915   -3.232276    6.523491
     18          6           0       -4.739670   -2.026132    8.542059
     19          8           0       -5.059738   -3.699746    5.298416
     20          6           0       -6.559893   -3.524979    7.082507
     21          6           0       -5.970289   -2.324428    9.072547
     22          1           0       -4.058888   -1.436079    9.141425
     23          1           0       -4.148261   -3.400601    5.067511
     24          1           0       -7.257369   -4.106333    6.492116
     25          6           0       -6.891221   -3.072668    8.341757
     26          1           0       -7.869000   -3.288109    8.758752
     27          8           0       -6.291407   -1.821977   10.320134
     28          6           0       -6.561717   -2.816545   11.283611
     29          1           0       -7.420882   -3.439073   11.006817
     30          1           0       -5.689993   -3.463043   11.441686
     31          1           0       -6.791316   -2.285450   12.207098
 ---------------------------------------------------------------------
                    Distance matrix (angstroms):
                    1          2          3          4          5
     1  C    0.000000
     2  H    1.089740   0.000000
     3  H    1.096427   1.776998   0.000000
     4  C    2.483374   2.514746   3.131769   0.000000
     5  H    2.812235   2.688352   3.148820   1.095953   0.000000
     6  N    1.448292   2.080193   2.110195   1.449902   2.111720
     7  H    1.093991   1.772228   1.777902   3.282773   3.810206
     8  H    3.396164   3.570201   4.008857   1.089804   1.773282
     9  H    2.748710   2.423477   3.602300   1.093705   1.778130
    10  C    2.420138   3.309117   2.782227   2.433710   3.088589
    11  H    3.381789   4.139700   3.769526   2.582437   3.259233
    12  C    2.894636   3.956875   2.970158   3.725474   4.289382
    13  C    4.339764   5.392156   4.363999   4.828560   5.402967
    14  H    2.625107   3.704207   2.522036   4.163430   4.641724
    15  O    5.031686   6.007423   5.161222   4.910284   5.508116
    16  C    5.312955   6.397767   5.181820   6.203544   6.733959
    17  C    6.673273   7.753735   6.549255   7.326882   7.861385
    18  C    5.246737   6.309503   4.990073   6.660528   7.139301
    19  O    7.214327   8.262527   7.178403   7.425932   7.976082
    20  C    7.710254   8.795981   7.502996   8.603356   9.113099
    21  C    6.506072   7.544952   6.182967   8.025389   8.480776
    22  H    4.415332   5.441574   4.125337   6.116990   6.563782
    23  H    6.556550   7.571949   6.590886   6.551866   7.116515
    24  H    8.714730   9.800635   8.520751   9.461160   9.973557
    25  C    7.643311   8.709612   7.351106   8.910102   9.386984
    26  H    8.616917   9.670103   8.286543   9.968928  10.429747
    27  O    6.828395   7.789794   6.421663   8.663474   9.063905
    28  C    7.713603   8.628714   7.430002   9.600214  10.093704
    29  H    8.619645   9.571295   8.343857  10.376729  10.889167
    30  H    7.359240   8.244522   7.226259   9.214627   9.802486
    31  H    8.084636   8.930375   7.738231  10.138523  10.576394
                    6          7          8          9         10
     6  N    0.000000
     7  H    2.097926   0.000000
     8  H    2.085898   4.080187   0.000000
     9  H    2.098457   3.386332   1.770817   0.000000
    10  C    1.342311   2.709597   2.526038   3.213089   0.000000
    11  H    2.060512   3.727095   2.196787   3.415787   1.086193
    12  C    2.418822   2.819819   3.886142   4.438394   1.361041
    13  C    3.696664   4.216993   4.716688   5.596142   2.412632
    14  H    2.730468   2.335578   4.561678   4.764109   2.129922
    15  O    4.072159   5.043004   4.521583   5.714528   2.734847
    16  C    4.958866   5.013429   6.176400   6.936952   3.773493
    17  C    6.186542   6.396384   7.147521   8.092671   4.916940
    18  C    5.279473   4.793860   6.848088   7.312061   4.327716
    19  O    6.476889   7.048894   7.053296   8.222928   5.141012
    20  C    7.390064   7.343274   8.491077   9.348377   6.175571
    21  C    6.634096   5.993403   8.219396   8.664166   5.700269
    22  H    4.685374   3.908658   6.461392   6.699169   3.955791
    23  H    5.693870   6.471607   6.120735   7.355570   4.351683
    24  H    8.308845   8.371612   9.264035  10.225223   7.050547
    25  C    7.583814   7.177843   8.961830   9.602490   6.504539
    26  H    8.626859   8.118697  10.040506  10.651261   7.573457
[...]
 Alpha virt. eigenvalues --    2.17888   2.19459   2.20562   2.21445   2.24124
 Alpha virt. eigenvalues --    2.24635   2.25585   2.26620   2.27212   2.30373
 Alpha virt. eigenvalues --    2.32095   2.32525   2.35819   2.40738   2.42062
 Alpha virt. eigenvalues --    2.42764   2.46998   2.47707   2.50807   2.51039
 Alpha virt. eigenvalues --    2.52728   2.53890   2.55297   2.56206   2.57574
 Alpha virt. eigenvalues --    2.59215   2.61198   2.62428   2.62888   2.64213
 Alpha virt. eigenvalues --    2.66336   2.67086   2.69819   2.71158   2.71571
 Alpha virt. eigenvalues --    2.73814   2.74968   2.75370   2.76742   2.77182
 Alpha virt. eigenvalues --    2.80199   2.81098   2.82775   2.83927   2.84585
 Alpha virt. eigenvalues --    2.86267   2.87207   2.87648   2.88185   2.90530
 Alpha virt. eigenvalues --    2.91375   2.94394   2.95217   2.95859   2.96724
 Alpha virt. eigenvalues --    2.99525   3.02302   3.02855   3.05466   3.08994
 Alpha virt. eigenvalues --    3.10773   3.11991   3.13434   3.15769   3.18297
 Alpha virt. eigenvalues --    3.20699   3.22695   3.22994   3.23837   3.25270
 Alpha virt. eigenvalues --    3.27424   3.31372   3.31913   3.32743   3.37680
 Alpha virt. eigenvalues --    3.40875   3.43681   3.43971   3.51076   3.53819
 Alpha virt. eigenvalues --    3.57838   3.62271   3.64780   3.67543   3.69329
 Alpha virt. eigenvalues --    3.72316   3.75829   3.77984   3.80655   3.82110
 Alpha virt. eigenvalues --    3.83292   3.85048   3.88984   3.90542   3.92857
 Alpha virt. eigenvalues --    3.93491   3.95051   4.04380   4.09051   4.13445
 Alpha virt. eigenvalues --    4.13973   4.18846   4.27258   4.30176   4.32326
 Alpha virt. eigenvalues --    4.40478   4.64888   4.95694   4.98694   5.14834
 Alpha virt. eigenvalues --    5.18157   5.19342   5.26604   5.43952   5.51892
 Alpha virt. eigenvalues --    5.63140   5.86785   5.92112   5.95988  23.73427
 Alpha virt. eigenvalues --   23.95015  24.03857  24.04808  24.05012  24.05609
 Alpha virt. eigenvalues --   24.07294  24.09908  24.16619  24.25165  24.30411
 Alpha virt. eigenvalues --   24.33333  35.70637  50.09910  50.14752  50.20315
          Condensed to atoms (all electrons):
               1          2          3          4          5          6
     1  C    5.259539   0.386314   0.421080  -0.072766   0.012096   0.238883
     2  H    0.386314   0.488902  -0.017165   0.005453  -0.006048  -0.049187
     3  H    0.421080  -0.017165   0.525710  -0.008192   0.000359  -0.059079
     4  C   -0.072766   0.005453  -0.008192   5.199696   0.396680   0.274042
     5  H    0.012096  -0.006048   0.000359   0.396680   0.562688  -0.051523
     6  N    0.238883  -0.049187  -0.059079   0.274042  -0.051523   6.854104
     7  H    0.414509  -0.022898  -0.053712   0.011416   0.002356  -0.031429
     8  H   -0.004622   0.003421  -0.000697   0.412856  -0.029856  -0.091725
     9  H   -0.010474  -0.004416   0.002829   0.411107  -0.065451  -0.048897
    10  C    0.086817   0.010281  -0.030406   0.047924  -0.032197   0.240132
    11  H    0.010279  -0.001015  -0.000980  -0.041824   0.005070  -0.067566
    12  C    0.298816   0.038890   0.013611  -0.160863   0.015804  -0.299246
    13  C   -0.326196  -0.016716   0.025571  -0.160494   0.002664  -0.004761
    14  H    0.008055  -0.000489  -0.027647  -0.001873   0.000597  -0.012919
    15  O   -0.000850   0.000123   0.000170   0.002225  -0.000187   0.004758
    16  C   -0.264504  -0.007130  -0.003833   0.026454  -0.001293   0.014966
    17  C   -0.047362  -0.000231  -0.000934  -0.002764  -0.000392   0.008465
    18  C    0.053100  -0.001942   0.019197  -0.028587   0.000261  -0.041404
    19  O   -0.000108  -0.000007   0.000048   0.000246   0.000003  -0.000118
    20  C    0.005970   0.000261  -0.000144  -0.002208   0.000000  -0.001298
    21  C   -0.022044  -0.001087  -0.002226   0.006485   0.000041   0.007365
    22  H    0.008061   0.000414   0.006035  -0.004931  -0.000159  -0.014151
    23  H   -0.001034  -0.000081   0.000116   0.000064   0.000000  -0.000088
    24  H    0.000104   0.000003   0.000002  -0.000010   0.000000  -0.000042
    25  C   -0.011577  -0.000340  -0.001692   0.000651   0.000024   0.003602
    26  H   -0.000148  -0.000005  -0.000010   0.000012   0.000001   0.000029
    27  O    0.000014  -0.000002  -0.000053  -0.000014   0.000000  -0.000030
    28  C   -0.000244  -0.000018  -0.000040   0.000013   0.000001   0.000074
    29  H    0.000040   0.000002   0.000010  -0.000005   0.000000  -0.000007
    30  H   -0.000097  -0.000006   0.000041   0.000012   0.000000   0.000001
    31  H    0.000009   0.000001  -0.000034   0.000003   0.000000   0.000011
               7          8          9         10         11         12
     1  C    0.414509  -0.004622  -0.010474   0.086817   0.010279   0.298816
     2  H   -0.022898   0.003421  -0.004416   0.010281  -0.001015   0.038890
     3  H   -0.053712  -0.000697   0.002829  -0.030406  -0.000980   0.013611
     4  C    0.011416   0.412856   0.411107   0.047924  -0.041824  -0.160863
     5  H    0.002356  -0.029856  -0.065451  -0.032197   0.005070   0.015804
     6  N   -0.031429  -0.091725  -0.048897   0.240132  -0.067566  -0.299246
     7  H    0.538382  -0.002932  -0.001471   0.070519   0.001291  -0.068601
     8  H   -0.002932   0.534717  -0.022651   0.061126  -0.009785  -0.011557
     9  H   -0.001471  -0.022651   0.562414  -0.007699   0.000661   0.008691
    10  C    0.070519   0.061126  -0.007699  13.694247   0.204682   1.877962
    11  H    0.001291  -0.009785   0.000661   0.204682   0.475607   0.161285
    12  C   -0.068601  -0.011557   0.008691   1.877962   0.161285  15.831228
    13  C   -0.048596   0.009896  -0.001085  -5.469471   0.136295   1.165247
    14  H    0.030083  -0.001962   0.001124   0.334225  -0.003653   0.559202
    15  O    0.000405   0.000537   0.000081   0.138556   0.009203  -0.244114
    16  C    0.005593   0.010893   0.000819  -1.211424  -0.101983  -5.792561
    17  C    0.000285   0.005027  -0.000167  -1.220268  -0.082888  -4.549162
    18  C   -0.028708  -0.006170   0.000213  -3.083285   0.085618  -0.660632
    19  O    0.000013  -0.000085   0.000003   0.001334   0.000001  -0.038385
    20  C   -0.001791  -0.000055   0.000008  -0.463135   0.000088  -0.177876
    21  C    0.009117   0.000320  -0.000021   0.557306  -0.007846  -0.884914
    22  H   -0.012875   0.000007  -0.000046  -0.374563   0.005584  -0.103186
    23  H   -0.000091   0.000073   0.000027  -0.015832   0.000371  -0.011094
    24  H   -0.000036  -0.000001   0.000000  -0.003493  -0.000097   0.005866
    25  C    0.003636   0.000199  -0.000023   0.039635  -0.005649  -0.633905
    26  H    0.000045   0.000001   0.000000   0.001872  -0.000001  -0.004928
    27  O    0.000009  -0.000001   0.000000  -0.000698  -0.000052   0.006184
    28  C   -0.000050  -0.000001   0.000000   0.001695  -0.000055  -0.004142
    29  H   -0.000031   0.000000   0.000000  -0.000934  -0.000002  -0.000081
    30  H    0.000045  -0.000001   0.000001   0.000446   0.000014  -0.003346
    31  H    0.000035   0.000000   0.000000   0.001022  -0.000001   0.003023
              13         14         15         16         17         18
     1  C   -0.326196   0.008055  -0.000850  -0.264504  -0.047362   0.053100
     2  H   -0.016716  -0.000489   0.000123  -0.007130  -0.000231  -0.001942
     3  H    0.025571  -0.027647   0.000170  -0.003833  -0.000934   0.019197
     4  C   -0.160494  -0.001873   0.002225   0.026454  -0.002764  -0.028587
     5  H    0.002664   0.000597  -0.000187  -0.001293  -0.000392   0.000261
     6  N   -0.004761  -0.012919   0.004758   0.014966   0.008465  -0.041404
     7  H   -0.048596   0.030083   0.000405   0.005593   0.000285  -0.028708
     8  H    0.009896  -0.001962   0.000537   0.010893   0.005027  -0.006170
     9  H   -0.001085   0.001124   0.000081   0.000819  -0.000167   0.000213
    10  C   -5.469471   0.334225   0.138556  -1.211424  -1.220268  -3.083285
    11  H    0.136295  -0.003653   0.009203  -0.101983  -0.082888   0.085618
    12  C    1.165247   0.559202  -0.244114  -5.792561  -4.549162  -0.660632
    13  C   15.847542  -0.159022   0.850838   0.940970  -4.601105   1.497396
    14  H   -0.159022   0.825459  -0.006578   0.232161   0.062780  -0.844427
    15  O    0.850838  -0.006578   8.140916  -0.149897  -0.158005  -0.243363
    16  C    0.940970   0.232161  -0.149897  23.130110   2.653620 -11.534716
    17  C   -4.601105   0.062780  -0.158005   2.653620  20.922003  -8.822197
    18  C    1.497396  -0.844427  -0.243363 -11.534716  -8.822197  31.954060
    19  O   -0.053176  -0.000472  -0.000264   0.126172   0.372186  -0.008974
    20  C   -0.535410  -0.049622  -0.076825  -3.808835  -0.353760   3.650898
    21  C   -1.327110  -0.038924   0.016434  -1.700928   0.768972   0.414038
    22  H    0.117973  -0.161939  -0.002888  -0.912894  -0.178690   2.190496
    23  H    0.010114  -0.004014   0.069503  -0.160577   0.022183   0.063264
    24  H    0.011245  -0.001036   0.000791  -0.114759  -0.168810   0.105204
    25  C   -1.304465   0.125155  -0.022692   2.375723   1.228787  -6.336749
    26  H   -0.002977   0.001312  -0.000174   0.169112   0.052727  -0.218014
    27  O   -0.005824   0.007412   0.000050   0.050756   0.016257  -0.200333
    28  C   -0.004357   0.008273   0.000078   0.027618   0.063063  -0.145844
    29  H   -0.002245  -0.000081  -0.000028  -0.025466  -0.003251   0.007824
    30  H    0.006871  -0.001596   0.000080   0.040945   0.000718   0.061755
    31  H    0.001205   0.001403   0.000008   0.016892   0.002115  -0.028481
              19         20         21         22         23         24
     1  C   -0.000108   0.005970  -0.022044   0.008061  -0.001034   0.000104
     2  H   -0.000007   0.000261  -0.001087   0.000414  -0.000081   0.000003
     3  H    0.000048  -0.000144  -0.002226   0.006035   0.000116   0.000002
     4  C    0.000246  -0.002208   0.006485  -0.004931   0.000064  -0.000010
     5  H    0.000003   0.000000   0.000041  -0.000159   0.000000   0.000000
     6  N   -0.000118  -0.001298   0.007365  -0.014151  -0.000088  -0.000042
     7  H    0.000013  -0.001791   0.009117  -0.012875  -0.000091  -0.000036
     8  H   -0.000085  -0.000055   0.000320   0.000007   0.000073  -0.000001
     9  H    0.000003   0.000008  -0.000021  -0.000046   0.000027   0.000000
    10  C    0.001334  -0.463135   0.557306  -0.374563  -0.015832  -0.003493
    11  H    0.000001   0.000088  -0.007846   0.005584   0.000371  -0.000097
    12  C   -0.038385  -0.177876  -0.884914  -0.103186  -0.011094   0.005866
    13  C   -0.053176  -0.535410  -1.327110   0.117973   0.010114   0.011245
    14  H   -0.000472  -0.049622  -0.038924  -0.161939  -0.004014  -0.001036
    15  O   -0.000264  -0.076825   0.016434  -0.002888   0.069503   0.000791
    16  C    0.126172  -3.808835  -1.700928  -0.912894  -0.160577  -0.114759
    17  C    0.372186  -0.353760   0.768972  -0.178690   0.022183  -0.168810
    18  C   -0.008974   3.650898   0.414038   2.190496   0.063264   0.105204
    19  O    8.086495  -0.424398  -0.005986  -0.003078   0.261147  -0.028336
    20  C   -0.424398   9.440331  -0.017328   0.222875   0.078714   0.571014
    21  C   -0.005986  -0.017328  10.641735  -0.141885   0.021445   0.055015
    22  H   -0.003078   0.222875  -0.141885   0.769385   0.005083   0.005899
    23  H    0.261147   0.078714   0.021445   0.005083   0.307530   0.002023
    24  H   -0.028336   0.571014   0.055015   0.005899   0.002023   0.469413
    25  C    0.012142  -1.519770  -1.614438  -0.494154  -0.007727  -0.129039
    26  H    0.001603  -0.107193  -0.306054  -0.011624  -0.000831  -0.018477
    27  O    0.000366   0.004703   0.468936  -0.047560   0.000433  -0.000270
    28  C    0.000390   0.022103  -0.208681  -0.025178   0.000005  -0.000313
    29  H   -0.000227  -0.009933   0.040480   0.001774   0.000032   0.001328
    30  H    0.000175   0.008454  -0.094107  -0.001693  -0.000074  -0.000609
    31  H    0.000025  -0.005782   0.013987  -0.005535  -0.000024  -0.000076
              25         26         27         28         29         30
     1  C   -0.011577  -0.000148   0.000014  -0.000244   0.000040  -0.000097
     2  H   -0.000340  -0.000005  -0.000002  -0.000018   0.000002  -0.000006
     3  H   -0.001692  -0.000010  -0.000053  -0.000040   0.000010   0.000041
     4  C    0.000651   0.000012  -0.000014   0.000013  -0.000005   0.000012
     5  H    0.000024   0.000001   0.000000   0.000001   0.000000   0.000000
     6  N    0.003602   0.000029  -0.000030   0.000074  -0.000007   0.000001
     7  H    0.003636   0.000045   0.000009  -0.000050  -0.000031   0.000045
     8  H    0.000199   0.000001  -0.000001  -0.000001   0.000000  -0.000001
     9  H   -0.000023   0.000000   0.000000   0.000000   0.000000   0.000001
    10  C    0.039635   0.001872  -0.000698   0.001695  -0.000934   0.000446
    11  H   -0.005649  -0.000001  -0.000052  -0.000055  -0.000002   0.000014
    12  C   -0.633905  -0.004928   0.006184  -0.004142  -0.000081  -0.003346
    13  C   -1.304465  -0.002977  -0.005824  -0.004357  -0.002245   0.006871
    14  H    0.125155   0.001312   0.007412   0.008273  -0.000081  -0.001596
    15  O   -0.022692  -0.000174   0.000050   0.000078  -0.000028   0.000080
    16  C    2.375723   0.169112   0.050756   0.027618  -0.025466   0.040945
    17  C    1.228787   0.052727   0.016257   0.063063  -0.003251   0.000718
    18  C   -6.336749  -0.218014  -0.200333  -0.145844   0.007824   0.061755
    19  O    0.012142   0.001603   0.000366   0.000390  -0.000227   0.000175
    20  C   -1.519770  -0.107193   0.004703   0.022103  -0.009933   0.008454
    21  C   -1.614438  -0.306054   0.468936  -0.208681   0.040480  -0.094107
    22  H   -0.494154  -0.011624  -0.047560  -0.025178   0.001774  -0.001693
    23  H   -0.007727  -0.000831   0.000433   0.000005   0.000032  -0.000074
    24  H   -0.129039  -0.018477  -0.000270  -0.000313   0.001328  -0.000609
    25  C   13.388411   0.737545  -0.212521   0.108516  -0.012987  -0.018278
    26  H    0.737545   0.529388  -0.012546  -0.004169  -0.010145   0.002895
    27  O   -0.212521  -0.012546   8.042814   0.156568  -0.039789  -0.052286
    28  C    0.108516  -0.004169   0.156568   5.138823   0.400228   0.410258
    29  H   -0.012987  -0.010145  -0.039789   0.400228   0.616839  -0.064897
    30  H   -0.018278   0.002895  -0.052286   0.410258  -0.064897   0.578901
    31  H    0.015595  -0.000116  -0.057604   0.410131  -0.028784  -0.024139
              31
     1  C    0.000009
     2  H    0.000001
     3  H   -0.000034
     4  C    0.000003
     5  H    0.000000
     6  N    0.000011
     7  H    0.000035
     8  H    0.000000
     9  H    0.000000
    10  C    0.001022
    11  H   -0.000001
    12  C    0.003023
    13  C    0.001205
    14  H    0.001403
    15  O    0.000008
    16  C    0.016892
    17  C    0.002115
    18  C   -0.028481
    19  O    0.000025
    20  C   -0.005782
    21  C    0.013987
    22  H   -0.005535
    23  H   -0.000024
    24  H   -0.000076
    25  C    0.015595
    26  H   -0.000116
    27  O   -0.057604
    28  C    0.410131
    29  H   -0.028784
    30  H   -0.024139
    31  H    0.521035
 Mulliken charges:
               1
     1  C   -0.441662
     2  H    0.194716
     3  H    0.192062
     4  C   -0.310812
     5  H    0.188460
     6  N    0.127038
     7  H    0.185482
     8  H    0.143028
     9  H    0.174426
    10  C    0.543625
    11  H    0.227349
    12  C   -0.337217
    13  C   -0.600818
    14  H    0.119013
    15  O   -0.328892
    16  C    1.967997
    17  C    0.010802
    18  C   -1.869499
    19  O   -0.298734
    20  C   -0.450054
    21  C   -0.648099
    22  H    0.163444
    23  H    0.359340
    24  H    0.237495
    25  C    0.286385
    26  H    0.200870
    27  O   -0.124923
    28  C   -0.354745
    29  H    0.130334
    30  H    0.149516
    31  H    0.164074
 Sum of Mulliken charges =   0.00000
 Mulliken charges with hydrogens summed into heavy atoms:
               1
     1  C    0.130597
     4  C    0.195102
     6  N    0.127038
    10  C    0.770974
    12  C   -0.218204
    13  C   -0.600818
    15  O   -0.328892
    16  C    1.967997
    17  C    0.010802
    18  C   -1.706055
    19  O    0.060607
    20  C   -0.212560
    21  C   -0.648099
    25  C    0.487255
    27  O   -0.124923
    28  C    0.089178
 Electronic spatial extent (au):  <R**2>=           5254.0637
 Charge=              0.0000 electrons
 Dipole moment (field-independent basis, Debye):
    X=             -4.1738    Y=             -4.5111    Z=              0.6923  Tot=              6.1846
 Quadrupole moment (field-independent basis, Debye-Ang):
   XX=            -59.4759   YY=           -100.4790   ZZ=            -99.0650
   XY=              2.8172   XZ=              4.0446   YZ=             -3.4411
 Traceless Quadrupole moment (field-independent basis, Debye-Ang):
   XX=             26.8640   YY=            -14.1391   ZZ=            -12.7250
   XY=              2.8172   XZ=              4.0446   YZ=             -3.4411
 Octapole moment (field-independent basis, Debye-Ang**2):
  XXX=            -88.9362  YYY=            -41.9948  ZZZ=              1.7710  XYY=            -14.5364
  XXY=            -30.4851  XXZ=              9.2078  XZZ=             -6.4340  YZZ=             -0.2157
  YYZ=              6.8251  XYZ=            -13.2932
 Hexadecapole moment (field-independent basis, Debye-Ang**3):
 XXXX=          -4178.9265 YYYY=          -1639.5633 ZZZZ=           -164.3507 XXXY=             11.7872
 XXXZ=             21.5174 YYYX=            -55.2217 YYYZ=            -17.7950 ZZZX=              7.0336
 ZZZY=              3.7104 XXYY=          -1035.0902 XXZZ=           -925.4304 YYZZ=           -298.8878
 XXYZ=            -34.7280 YYXZ=             27.0552 ZZXY=             -4.9183
 N-N= 1.054658365995D+03 E-N=-3.852247660940D+03  KE= 7.437818024435D+02
 1\1\GINC-NXN36\FOpt\RwB97XD\6-311++G(d,p)\C12H15N1O3\BTX008\19-Jun-201
 7\0\\# wb97xd 6-311++g** opt\\Geom Opt s0\\0,1\C,-0.060701973,0.345662
 611,8.5644022158\H,0.8801637721,0.8216876262,8.8395514185\H,-0.8443883
 067,1.1112524179,8.5226818375\C,1.276203259,-0.0130475359,6.5027294051
 \H,1.3032476044,1.0458121017,6.2219501516\N,0.0951315646,-0.3177885303
 ,7.2863736165\H,-0.3238527757,-0.3788287387,9.3408545546\H,1.274543597
 9,-0.6106918075,5.5914893669\H,2.1825508876,-0.2473382167,7.0687899547
 \C,-0.9011313062,-1.0656990526,6.7868545973\H,-0.7131598125,-1.5135261
 795,5.8152799812\C,-2.1035652285,-1.322326742,7.3708535552\C,-3.042068
 683,-2.1719146656,6.6651216256\H,-2.367062965,-0.887699115,8.322662047
 \O,-2.7609622161,-2.6455457708,5.549876498\C,-4.3690856024,-2.47571902
 45,7.2637234905\C,-5.3143241189,-3.2093678163,6.5132382885\C,-4.724467
 7065,-2.0624518164,8.5576799782\O,-5.0675464905,-3.6688831524,5.283011
 4633\C,-6.5765299042,-3.4726344167,7.0594694077\C,-5.9662676301,-2.335
 8679751,9.0892723289\H,-4.0298625411,-1.513192495,9.1793719024\H,-4.13
 89386221,-3.4119604631,5.074461558\H,-7.2885804452,-4.0209570658,6.454
 5160894\C,-6.9033470942,-3.0377255755,8.3264155231\H,-7.8918580085,-3.
 2320526061,8.7276703709\O,-6.2667178365,-1.8609059449,10.3439974874\C,
 -6.5513538302,-2.8585450462,11.3065598265\H,-7.4540642453,-3.426300619
 2,11.0538207197\H,-5.7099823332,-3.5544549798,11.4069667404\H,-6.71243
 87111,-2.3431720796,12.2532526568\\Version=ES64L-G09RevD.01\State=1-A\
 HF=-746.6672621\RMSD=5.963e-09\RMSF=2.634e-06\Dipole=1.7832203,1.04213
 23,1.2863241\Quadrupole=12.7052334,-5.2760222,-7.4292112,12.1582903,-4
 .6837684,-5.238925\PG=C01 [X(C12H15N1O3)]\\@


 A SLIP OF THE FOOT YOU MAY SOON RECOVER, BUT A SLIP OF THE TONGUE
 YOU MAY NEVER GET OVER. -- BEN FRANKLIN
 Job cpu time:       0 days  7 hours 47 minutes 39.9 seconds.
 File lengths (MBytes):  RWF=    125 Int=      0 D2E=      0 Chk=     29 Scr=      1
 Normal termination of Gaussian 09 at Mon Jun 19 15:31:06 2017.
