 Entering Gaussian System, Link 0=g09
 Input=5_optS1_rotated_trans.com
 Output=5_optS1_rotated_trans.out
 Initial command:
 /share/apps/gaussian/g09_D01/g09/l1.exe "/tmp/93671.1.all.q/Gau-25474.inp" -scrdir="/tmp/93671.1.all.q/"
 Entering Link 1 = /share/apps/gaussian/g09_D01/g09/l1.exe PID=     25475.
  
 Copyright (c) 1988,1990,1992,1993,1995,1998,2003,2009,2013,
            Gaussian, Inc.  All Rights Reserved.
  
 This is part of the Gaussian(R) 09 program.  It is based on
 the Gaussian(R) 03 system (copyright 2003, Gaussian, Inc.),
 the Gaussian(R) 98 system (copyright 1998, Gaussian, Inc.),
 the Gaussian(R) 94 system (copyright 1995, Gaussian, Inc.),
 the Gaussian 92(TM) system (copyright 1992, Gaussian, Inc.),
 the Gaussian 90(TM) system (copyright 1990, Gaussian, Inc.),
 the Gaussian 88(TM) system (copyright 1988, Gaussian, Inc.),
 the Gaussian 86(TM) system (copyright 1986, Carnegie Mellon
 University), and the Gaussian 82(TM) system (copyright 1983,
 Carnegie Mellon University). Gaussian is a federally registered
 trademark of Gaussian, Inc.
  
 This software contains proprietary and confidential information,
 including trade secrets, belonging to Gaussian, Inc.
  
 This software is provided under written license and may be
 used, copied, transmitted, or stored only in accord with that
 written license.
  
 The following legend is applicable only to US Government
 contracts under FAR:
  
                    RESTRICTED RIGHTS LEGEND
  
 Use, reproduction and disclosure by the US Government is
 subject to restrictions as set forth in subparagraphs (a)
 and (c) of the Commercial Computer Software - Restricted
 Rights clause in FAR 52.227-19.
  
 Gaussian, Inc.
 340 Quinnipiac St., Bldg. 40, Wallingford CT 06492
  
  
 ---------------------------------------------------------------
 Warning -- This program may not be used in any manner that
 competes with the business of Gaussian, Inc. or will provide
 assistance to any competitor of Gaussian, Inc.  The licensee
 of this program is prohibited from giving any competitor of
 Gaussian, Inc. access to this program.  By using this program,
 the user acknowledges that Gaussian, Inc. is engaged in the
 business of creating and licensing software in the field of
 computational chemistry and represents and warrants to the
 licensee that it is not a competitor of Gaussian, Inc. and that
 it will not use this program in any manner prohibited above.
 ---------------------------------------------------------------
  

 Cite this work as:
 Gaussian 09, Revision D.01,
 M. J. Frisch, G. W. Trucks, H. B. Schlegel, G. E. Scuseria, 
 M. A. Robb, J. R. Cheeseman, G. Scalmani, V. Barone, B. Mennucci, 
 G. A. Petersson, H. Nakatsuji, M. Caricato, X. Li, H. P. Hratchian, 
 A. F. Izmaylov, J. Bloino, G. Zheng, J. L. Sonnenberg, M. Hada, 
 M. Ehara, K. Toyota, R. Fukuda, J. Hasegawa, M. Ishida, T. Nakajima, 
 Y. Honda, O. Kitao, H. Nakai, T. Vreven, J. A. Montgomery, Jr., 
 J. E. Peralta, F. Ogliaro, M. Bearpark, J. J. Heyd, E. Brothers, 
 K. N. Kudin, V. N. Staroverov, T. Keith, R. Kobayashi, J. Normand, 
 K. Raghavachari, A. Rendell, J. C. Burant, S. S. Iyengar, J. Tomasi, 
 M. Cossi, N. Rega, J. M. Millam, M. Klene, J. E. Knox, J. B. Cross, 
 V. Bakken, C. Adamo, J. Jaramillo, R. Gomperts, R. E. Stratmann, 
 O. Yazyev, A. J. Austin, R. Cammi, C. Pomelli, J. W. Ochterski, 
 R. L. Martin, K. Morokuma, V. G. Zakrzewski, G. A. Voth, 
 P. Salvador, J. J. Dannenberg, S. Dapprich, A. D. Daniels, 
 O. Farkas, J. B. Foresman, J. V. Ortiz, J. Cioslowski, 
 and D. J. Fox, Gaussian, Inc., Wallingford CT, 2013.
 
 ******************************************
 Gaussian 09:  ES64L-G09RevD.01 24-Apr-2013
                26-Jul-2017 
 ******************************************
 %chk=5_optS1_rotated_trans.chk
 %mem=28GB
 %nproc=4
 Will use up to    4 processors via shared memory.
 ---------------------------------------------
 # wb97xd 6-311++g** opt td=(nstates=1,root=1)
 ---------------------------------------------
 1/14=-1,18=20,19=15,26=3,38=1/1,3;
 2/9=110,12=2,17=6,18=5,40=1/2;
 3/5=4,6=6,7=1111,11=9,16=1,25=1,30=1,71=1,74=-58/1,2,8,3;
 4//1;
 5/5=2,38=5/2;
 8/6=1,10=2,107=1,108=1/1;
 9/8=1,15=2,41=1,42=1,70=2/14;
 10/5=4/2;
 6/7=2,8=2,9=2,10=2/1;
 7/12=6,13=5,14=1/1,2,3,16;
 1/14=-1,18=20,19=15,26=3/3(2);
 2/9=110/2;
 99//99;
 2/9=110/2;
 3/5=4,6=6,7=1111,11=9,16=1,25=1,30=1,71=1,74=-58/1,2,8,3;
 4/5=5,16=3,69=1/1;
 5/5=2,38=5/2;
 8/6=1,10=2,107=1,108=1/1;
 9/8=1,15=2,41=1,42=1,49=4,70=2/14;
 10/5=4/2;
 7/12=6,13=5,14=1/1,2,3,16;
 1/14=-1,18=20,19=15,26=3/3(-8);
 2/9=110/2;
 6/7=2,8=2,9=2,10=2/1;
 99//99;
 -----------
 Geom Opt s1
 -----------
 Symbolic Z-matrix:
 Charge =  0 Multiplicity = 1
 C                     0.67721  -3.95158   8.0193 
 H                     1.70643  -4.30626   8.06871 
 H                     0.41585  -3.49243   8.97998 
 C                     1.76631  -2.49202   6.33109 
 H                     2.36336  -1.93296   7.06029 
 N                     0.54996  -3.0039    6.9314 
 H                     0.02074  -4.8113    7.85518 
 H                     1.51456  -1.82382   5.50789 
 H                     2.37404  -3.31224   5.93778 
 C                    -0.65328  -2.50687   6.60489 
 H                    -0.66138  -1.78768   5.79092 
 C                    -1.8488   -2.81513   7.17799 
 C                    -3.04207  -2.17192   6.66512 
 H                    -1.91037  -3.50075   8.0089 
 O                    -2.97473  -1.35124   5.73288 
 C                    -4.36909  -2.47572   7.26372 
 C                    -5.14429  -3.52808   6.72842 
 C                    -4.8878   -1.75525   8.3515 
 O                    -4.73283  -4.28925   5.71018 
 C                    -6.40763  -3.79961   7.26795 
 C                    -6.1284   -2.03771   8.88117 
 H                    -4.3257   -0.95162   8.80855 
 H                    -3.82861  -3.97268   5.47784 
 H                    -6.98859  -4.59996   6.82571 
 C                    -6.8984   -3.06251   8.3248 
 H                    -7.8869   -3.27181   8.71848 
 O                    -6.59702  -1.26255   9.91545 
 C                    -6.84009  -1.96176   11.12162 
 H                    -7.63859  -2.70426   11.01121 
 H                    -5.93088  -2.46631   11.46954 
 H                    -7.14842  -1.21908   11.85724 
 

 GradGradGradGradGradGradGradGradGradGradGradGradGradGradGradGradGradGrad
 Berny optimization.
 Initialization pass.
                           ----------------------------
                           !    Initial Parameters    !
                           ! (Angstroms and Degrees)  !
 --------------------------                            --------------------------
 ! Name  Definition              Value          Derivative Info.                !
 --------------------------------------------------------------------------------
 ! R1    R(1,2)                  1.0897         estimate D2E/DX2                !
 ! R2    R(1,3)                  1.0964         estimate D2E/DX2                !
 ! R3    R(1,6)                  1.4484         estimate D2E/DX2                !
 ! R4    R(1,7)                  1.0941         estimate D2E/DX2                !
 ! R5    R(4,5)                  1.0958         estimate D2E/DX2                !
 ! R6    R(4,6)                  1.4498         estimate D2E/DX2                !
 ! R7    R(4,8)                  1.0897         estimate D2E/DX2                !
 ! R8    R(4,9)                  1.094          estimate D2E/DX2                !
 ! R9    R(6,10)                 1.3422         estimate D2E/DX2                !
 ! R10   R(10,11)                1.0862         estimate D2E/DX2                !
 ! R11   R(10,12)                1.3612         estimate D2E/DX2                !
 ! R12   R(12,13)                1.4494         estimate D2E/DX2                !
 ! R13   R(12,14)                1.079          estimate D2E/DX2                !
 ! R14   R(13,15)                1.2438         estimate D2E/DX2                !
 ! R15   R(13,16)                1.4871         estimate D2E/DX2                !
 ! R16   R(16,17)                1.4124         estimate D2E/DX2                !
 ! R17   R(16,18)                1.4041         estimate D2E/DX2                !
 ! R18   R(17,19)                1.3362         estimate D2E/DX2                !
 ! R19   R(17,20)                1.4003         estimate D2E/DX2                !
 ! R20   R(18,21)                1.3782         estimate D2E/DX2                !
 ! R21   R(18,22)                1.082          estimate D2E/DX2                !
 ! R22   R(19,23)                0.9858         estimate D2E/DX2                !
 ! R23   R(20,24)                1.0833         estimate D2E/DX2                !
 ! R24   R(20,25)                1.3788         estimate D2E/DX2                !
 ! R25   R(21,25)                1.3974         estimate D2E/DX2                !
 ! R26   R(21,27)                1.3748         estimate D2E/DX2                !
 ! R27   R(25,26)                1.0844         estimate D2E/DX2                !
 ! R28   R(27,28)                1.4152         estimate D2E/DX2                !
 ! R29   R(28,29)                1.096          estimate D2E/DX2                !
 ! R30   R(28,30)                1.0965         estimate D2E/DX2                !
 ! R31   R(28,31)                1.0899         estimate D2E/DX2                !
 ! A1    A(2,1,3)              108.7672         estimate D2E/DX2                !
 ! A2    A(2,1,6)              109.2684         estimate D2E/DX2                !
 ! A3    A(2,1,7)              108.5261         estimate D2E/DX2                !
 ! A4    A(3,1,6)              111.2964         estimate D2E/DX2                !
 ! A5    A(3,1,7)              108.5108         estimate D2E/DX2                !
 ! A6    A(6,1,7)              110.4118         estimate D2E/DX2                !
 ! A7    A(5,4,6)              111.2058         estimate D2E/DX2                !
 ! A8    A(5,4,8)              108.4042         estimate D2E/DX2                !
 ! A9    A(5,4,9)              108.6075         estimate D2E/DX2                !
 ! A10   A(6,4,8)              109.6009         estimate D2E/DX2                !
 ! A11   A(6,4,9)              110.5012         estimate D2E/DX2                !
 ! A12   A(8,4,9)              108.4505         estimate D2E/DX2                !
 ! A13   A(1,6,4)              117.9249         estimate D2E/DX2                !
 ! A14   A(1,6,10)             120.2508         estimate D2E/DX2                !
 ! A15   A(4,6,10)             121.3763         estimate D2E/DX2                !
 ! A16   A(6,10,11)            115.7334         estimate D2E/DX2                !
 ! A17   A(6,10,12)            126.9487         estimate D2E/DX2                !
 ! A18   A(11,10,12)           117.3167         estimate D2E/DX2                !
 ! A19   A(10,12,13)           118.2697         estimate D2E/DX2                !
 ! A20   A(10,12,14)           121.2148         estimate D2E/DX2                !
 ! A21   A(13,12,14)           120.498          estimate D2E/DX2                !
 ! A22   A(12,13,15)           120.8942         estimate D2E/DX2                !
 ! A23   A(12,13,16)           120.1033         estimate D2E/DX2                !
 ! A24   A(15,13,16)           118.9982         estimate D2E/DX2                !
 ! A25   A(13,16,17)           119.3017         estimate D2E/DX2                !
 ! A26   A(13,16,18)           122.4577         estimate D2E/DX2                !
 ! A27   A(17,16,18)           118.2404         estimate D2E/DX2                !
 ! A28   A(16,17,19)           122.9716         estimate D2E/DX2                !
 ! A29   A(16,17,20)           119.5788         estimate D2E/DX2                !
 ! A30   A(19,17,20)           117.4485         estimate D2E/DX2                !
 ! A31   A(16,18,21)           121.6773         estimate D2E/DX2                !
 ! A32   A(16,18,22)           121.0949         estimate D2E/DX2                !
 ! A33   A(21,18,22)           117.2277         estimate D2E/DX2                !
 ! A34   A(17,19,23)           106.2071         estimate D2E/DX2                !
 ! A35   A(17,20,24)           118.0201         estimate D2E/DX2                !
 ! A36   A(17,20,25)           120.8496         estimate D2E/DX2                !
 ! A37   A(24,20,25)           121.1288         estimate D2E/DX2                !
 ! A38   A(18,21,25)           119.5581         estimate D2E/DX2                !
 ! A39   A(18,21,27)           118.7107         estimate D2E/DX2                !
 ! A40   A(25,21,27)           121.6811         estimate D2E/DX2                !
 ! A41   A(20,25,21)           120.0732         estimate D2E/DX2                !
 ! A42   A(20,25,26)           119.9702         estimate D2E/DX2                !
 ! A43   A(21,25,26)           119.9539         estimate D2E/DX2                !
 ! A44   A(21,27,28)           114.9072         estimate D2E/DX2                !
 ! A45   A(27,28,29)           111.9628         estimate D2E/DX2                !
 ! A46   A(27,28,30)           110.8154         estimate D2E/DX2                !
 ! A47   A(27,28,31)           106.6894         estimate D2E/DX2                !
 ! A48   A(29,28,30)           108.927          estimate D2E/DX2                !
 ! A49   A(29,28,31)           108.8778         estimate D2E/DX2                !
 ! A50   A(30,28,31)           109.5116         estimate D2E/DX2                !
 ! D1    D(2,1,6,4)            -12.8316         estimate D2E/DX2                !
 ! D2    D(2,1,6,10)           174.7423         estimate D2E/DX2                !
 ! D3    D(3,1,6,4)            107.305          estimate D2E/DX2                !
 ! D4    D(3,1,6,10)           -65.1212         estimate D2E/DX2                !
 ! D5    D(7,1,6,4)           -132.1215         estimate D2E/DX2                !
 ! D6    D(7,1,6,10)            55.4523         estimate D2E/DX2                !
 ! D7    D(5,4,6,1)            -62.2711         estimate D2E/DX2                !
 ! D8    D(5,4,6,10)           110.0652         estimate D2E/DX2                !
 ! D9    D(8,4,6,1)            177.8845         estimate D2E/DX2                !
 ! D10   D(8,4,6,10)            -9.7791         estimate D2E/DX2                !
 ! D11   D(9,4,6,1)             58.4243         estimate D2E/DX2                !
 ! D12   D(9,4,6,10)          -129.2393         estimate D2E/DX2                !
 ! D13   D(1,6,10,11)          178.8496         estimate D2E/DX2                !
 ! D14   D(1,6,10,12)           -1.5669         estimate D2E/DX2                !
 ! D15   D(4,6,10,11)            6.6894         estimate D2E/DX2                !
 ! D16   D(4,6,10,12)         -173.7271         estimate D2E/DX2                !
 ! D17   D(6,10,12,13)        -179.381          estimate D2E/DX2                !
 ! D18   D(6,10,12,14)           2.1341         estimate D2E/DX2                !
 ! D19   D(11,10,12,13)          0.1967         estimate D2E/DX2                !
 ! D20   D(11,10,12,14)       -178.2882         estimate D2E/DX2                !
 ! D21   D(10,12,13,15)         -0.581          estimate D2E/DX2                !
 ! D22   D(10,12,13,16)       -179.8184         estimate D2E/DX2                !
 ! D23   D(14,12,13,15)        177.9152         estimate D2E/DX2                !
 ! D24   D(14,12,13,16)         -1.3222         estimate D2E/DX2                !
 ! D25   D(12,13,16,17)        -90.7482         estimate D2E/DX2                !
 ! D26   D(12,13,16,18)         89.1023         estimate D2E/DX2                !
 ! D27   D(15,13,16,17)         90.0            estimate D2E/DX2                !
 ! D28   D(15,13,16,18)        -90.1495         estimate D2E/DX2                !
 ! D29   D(13,16,17,19)          1.0563         estimate D2E/DX2                !
 ! D30   D(13,16,17,20)       -178.5611         estimate D2E/DX2                !
 ! D31   D(18,16,17,19)       -178.8006         estimate D2E/DX2                !
 ! D32   D(18,16,17,20)          1.5821         estimate D2E/DX2                !
 ! D33   D(13,16,18,21)        179.0263         estimate D2E/DX2                !
 ! D34   D(13,16,18,22)         -0.9359         estimate D2E/DX2                !
 ! D35   D(17,16,18,21)         -1.1217         estimate D2E/DX2                !
 ! D36   D(17,16,18,22)        178.9161         estimate D2E/DX2                !
 ! D37   D(16,17,19,23)          1.6513         estimate D2E/DX2                !
 ! D38   D(20,17,19,23)       -178.7237         estimate D2E/DX2                !
 ! D39   D(16,17,20,24)        178.8446         estimate D2E/DX2                !
 ! D40   D(16,17,20,25)         -0.728          estimate D2E/DX2                !
 ! D41   D(19,17,20,24)         -0.7936         estimate D2E/DX2                !
 ! D42   D(19,17,20,25)        179.6338         estimate D2E/DX2                !
 ! D43   D(16,18,21,25)         -0.2243         estimate D2E/DX2                !
 ! D44   D(16,18,21,27)       -177.6933         estimate D2E/DX2                !
 ! D45   D(22,18,21,25)        179.7393         estimate D2E/DX2                !
 ! D46   D(22,18,21,27)          2.2702         estimate D2E/DX2                !
 ! D47   D(17,20,25,21)         -0.6429         estimate D2E/DX2                !
 ! D48   D(17,20,25,26)        178.7604         estimate D2E/DX2                !
 ! D49   D(24,20,25,21)        179.7979         estimate D2E/DX2                !
 ! D50   D(24,20,25,26)         -0.7988         estimate D2E/DX2                !
 ! D51   D(18,21,25,20)          1.1215         estimate D2E/DX2                !
 ! D52   D(18,21,25,26)       -178.2819         estimate D2E/DX2                !
 ! D53   D(27,21,25,20)        178.5129         estimate D2E/DX2                !
 ! D54   D(27,21,25,26)         -0.8904         estimate D2E/DX2                !
 ! D55   D(18,21,27,28)       -118.6257         estimate D2E/DX2                !
 ! D56   D(25,21,27,28)         63.9614         estimate D2E/DX2                !
 ! D57   D(21,27,28,29)        -64.1365         estimate D2E/DX2                !
 ! D58   D(21,27,28,30)         57.6988         estimate D2E/DX2                !
 ! D59   D(21,27,28,31)        176.8433         estimate D2E/DX2                !
 --------------------------------------------------------------------------------
 Trust Radius=3.00D-01 FncErr=1.00D-07 GrdErr=1.00D-06
 Number of steps in this run=    150 maximum allowed number of steps=    186.
 GradGradGradGradGradGradGradGradGradGradGradGradGradGradGradGradGradGrad

                          Input orientation:                          
 ---------------------------------------------------------------------
 Center     Atomic      Atomic             Coordinates (Angstroms)
 Number     Number       Type             X           Y           Z
 ---------------------------------------------------------------------
      1          6           0        0.677208   -3.951577    8.019299
      2          1           0        1.706427   -4.306264    8.068708
      3          1           0        0.415849   -3.492430    8.979979
      4          6           0        1.766310   -2.492023    6.331091
      5          1           0        2.363363   -1.932957    7.060285
      6          7           0        0.549960   -3.003895    6.931403
      7          1           0        0.020738   -4.811303    7.855183
      8          1           0        1.514562   -1.823816    5.507888
      9          1           0        2.374040   -3.312242    5.937784
     10          6           0       -0.653277   -2.506869    6.604885
     11          1           0       -0.661385   -1.787679    5.790920
     12          6           0       -1.848804   -2.815134    7.177991
     13          6           0       -3.042069   -2.171915    6.665122
     14          1           0       -1.910371   -3.500746    8.008904
     15          8           0       -2.974727   -1.351240    5.732878
     16          6           0       -4.369086   -2.475719    7.263723
     17          6           0       -5.144292   -3.528075    6.728424
     18          6           0       -4.887803   -1.755247    8.351502
     19          8           0       -4.732832   -4.289248    5.710176
     20          6           0       -6.407631   -3.799609    7.267948
     21          6           0       -6.128399   -2.037708    8.881172
     22          1           0       -4.325703   -0.951619    8.808546
     23          1           0       -3.828611   -3.972678    5.477840
     24          1           0       -6.988586   -4.599956    6.825707
     25          6           0       -6.898401   -3.062511    8.324802
     26          1           0       -7.886900   -3.271811    8.718484
     27          8           0       -6.597017   -1.262552    9.915447
     28          6           0       -6.840086   -1.961757   11.121622
     29          1           0       -7.638585   -2.704265   11.011213
     30          1           0       -5.930875   -2.466308   11.469537
     31          1           0       -7.148423   -1.219075   11.857242
 ---------------------------------------------------------------------
                    Distance matrix (angstroms):
                    1          2          3          4          5
     1  C    0.000000
     2  H    1.089741   0.000000
     3  H    1.096372   1.777170   0.000000
     4  C    2.483241   2.512841   3.137063   0.000000
     5  H    2.799580   2.661027   3.148014   1.095789   0.000000
     6  N    1.448381   2.080154   2.110288   1.449791   2.109965
     7  H    1.094082   1.772626   1.777837   3.278557   3.795343
     8  H    3.396426   3.571716   4.005853   1.089743   1.772656
     9  H    2.760560   2.444304   3.622420   1.093976   1.778356
    10  C    2.420318   3.308897   2.784857   2.435074   3.104333
    11  H    3.382301   4.139821   3.773156   2.584876   3.283518
    12  C    2.894829   3.956831   2.972296   3.727021   4.305164
    13  C    4.339817   5.392004   4.365721   4.830585   5.425122
    14  H    2.626580   3.705895   2.520784   4.165400   4.650015
    15  O    5.032505   6.008450   5.159880   4.912909   5.531330
    16  C    5.311698   6.396151   5.184094   6.205896   6.757355
    17  C    5.977924   7.023837   5.998828   6.999121   7.682410
    18  C    5.991959   7.076124   5.616183   6.993005   7.367376
    19  O    5.891910   6.857625   6.151052   6.771587   7.598085
    20  C    7.126189   8.169201   7.041682   8.330713   8.969830
    21  C    7.121939   8.197008   6.704712   8.308775   8.685426
    22  H    5.886577   6.941729   5.382140   6.754499   6.983054
    23  H    5.173187   6.120500   5.523681   5.850086   6.708587
    24  H    7.785207   8.788319   7.790581   9.018660   9.727634
    25  C    7.633716   8.698021   7.356109   8.909408   9.415687
    26  H    8.619448   9.670792   8.309794   9.974576  10.469481
    27  O    7.983770   9.034479   7.418069   9.181745   9.428139
    28  C    8.372186   9.373360   7.718690   9.864097  10.059759
    29  H    8.925231   9.927436   8.343921  10.507171  10.781637
    30  H    7.601114   8.560342   6.894326   9.254780   9.408525
    31  H    9.134378  10.113955   8.406247  10.565567  10.676820
                    6          7          8          9         10
     6  N    0.000000
     7  H    2.097657   0.000000
     8  H    2.085531   4.082448   0.000000
     9  H    2.099911   3.385503   1.771700   0.000000
    10  C    1.342173   2.707020   2.523785   3.202858   0.000000
    11  H    2.060883   3.724081   2.194575   3.399950   1.086204
    12  C    2.418781   2.817529   3.883836   4.429180   1.361161
    13  C    3.696724   4.214665   4.714155   5.582437   2.412913
    14  H    2.731500   2.338883   4.560410   4.762483   2.130574
    15  O    4.073224   5.044703   4.519698   5.700598   2.735874
    16  C    4.958469   5.007528   6.174565   6.922978   3.773893
    17  C    5.721929   5.440018   6.981014   7.562870   4.607313
    18  C    5.757175   5.803412   7.005792   7.809265   4.641855
    19  O    5.572380   5.241186   6.719317   7.177324   4.540941
    20  C    7.011026   6.533935   8.352408   8.895201   5.934932
    21  C    7.023930   6.823297   8.357012   9.087323   5.947987
    22  H    5.613163   5.890469   6.764893   7.661617   4.556494
    23  H    4.714156   4.601363   5.759168   6.254646   3.674448
    24  H    7.706377   7.087673   9.041412   9.492385   6.675770
    25  C    7.577801   7.152154   8.958087   9.578015   6.501417
    26  H    8.628211   8.102226  10.039527  10.631124   7.574809
    27  O    7.938266   7.786720   9.248747  10.025113   6.916371
    28  C    8.559016   8.115445  10.066438  10.658146   7.679496
    29  H    9.153518   8.547828  10.716430  11.241084   8.261308
    30  H    7.929999   7.347398   9.559738  10.014365   7.177710
    31  H    9.312065   8.962000  10.757663  11.406078   8.451780
                   11         12         13         14         15
    11  H    0.000000
    12  C    2.095136   0.000000
    13  C    2.565058   1.449361   0.000000
    14  H    3.068227   1.079014   2.202790   0.000000
    15  O    2.354868   2.345003   1.243833   3.306588   0.000000
    16  C    4.048407   2.544479   1.487143   2.766090   2.356305
    17  C    4.899424   3.401564   2.502503   3.478308   3.230594
    18  C    4.941685   3.425786   2.534605   3.468320   3.268069
    19  O    4.779231   3.555997   2.872926   3.724537   3.423936
    20  C    6.264888   4.664782   3.786792   4.567678   4.487291
    21  C    6.284936   4.671205   3.801884   4.548966   4.508729
    22  H    4.819989   3.502347   2.780487   3.601570   3.382982
    23  H    3.860513   2.854831   2.295873   3.210709   2.768772
    24  H    7.000940   5.452252   4.636396   5.328835   5.278209
    25  C    6.851724   5.184091   4.291736   5.017199   5.004171
    26  H    7.936079   6.248222   5.375728   6.022857   6.060683
    27  O    7.247014   5.696465   4.901960   5.532547   5.533781
    28  C    8.162293   6.418206   5.859137   6.029891   6.659751
    29  H    8.762016   6.944599   6.348217   6.516186   7.172382
    30  H    7.776552   5.933157   5.613757   5.404674   6.549156
    31  H    8.899732   7.247673   6.687911   6.888608   7.412492
                   16         17         18         19         20
    16  C    0.000000
    17  C    1.412425   0.000000
    18  C    1.404069   2.417248   0.000000
    19  O    2.415514   1.336230   3.663575   0.000000
    20  C    2.430714   1.400300   2.768282   2.339092   0.000000
    21  C    2.429646   2.797139   1.378192   4.131858   2.405152
    22  H    2.170539   3.411030   1.081972   4.572244   3.849534
    23  H    2.392149   1.868863   3.781114   0.985806   3.144167
    24  H    3.400885   2.135372   3.851456   2.535621   1.083347
    25  C    2.804933   2.417037   2.398365   3.609825   1.378807
    26  H    3.889101   3.398221   3.380713   4.475850   2.137957
    27  O    3.669753   4.171345   2.368562   5.506394   3.671754
    28  C    4.610139   4.962787   3.395235   6.256315   4.291331
    29  H    4.978508   5.024186   3.942271   6.249525   4.089873
    30  H    4.486440   4.921810   3.363889   6.158624   4.433773
    31  H    5.514008   5.970996   4.205721   7.283368   5.316912
                   21         22         23         24         25
    21  C    0.000000
    22  H    2.105844   0.000000
    23  H    4.540463   4.524103   0.000000
    24  H    3.395581   4.932845   3.492229   0.000000
    25  C    1.397380   3.362833   4.284531   2.149222   0.000000
    26  H    2.154484   4.251297   5.240486   2.480634   1.084399
    27  O    1.374843   2.545737   5.890773   4.564875   2.420916
    28  C    2.351996   3.562698   6.705599   5.043514   3.006204
    29  H    2.694816   4.347263   6.836885   4.640540   2.809452
    30  H    2.631035   3.457128   6.526033   5.218847   3.343789
    31  H    3.250785   4.163391   7.700666   6.064013   3.992355
                   26         27         28         29         30
    26  H    0.000000
    27  O    2.670887   0.000000
    28  C    2.930381   1.415213   0.000000
    29  H    2.374947   2.089043   1.095951   0.000000
    30  H    3.470325   2.075565   1.096485   1.784085   0.000000
    31  H    3.822417   2.019036   1.089856   1.778149   1.785589
                   31
    31  H    0.000000
 Stoichiometry    C12H15NO3
 Framework group  C1[X(C12H15NO3)]
 Deg. of freedom    87
 Full point group                 C1      NOp   1
 Largest Abelian subgroup         C1      NOp   1
 Largest concise Abelian subgroup C1      NOp   1
                         Standard orientation:                         
 ---------------------------------------------------------------------
 Center     Atomic      Atomic             Coordinates (Angstroms)
 Number     Number       Type             X           Y           Z
 ---------------------------------------------------------------------
      1          6           0        3.895618   -1.249853   -1.543429
      2          1           0        4.878573   -1.498178   -1.943016
      3          1           0        3.313961   -2.173264   -1.438453
      4          6           0        5.358527   -0.616036    0.360425
      5          1           0        5.655512   -1.643732    0.597899
      6          7           0        4.053077   -0.579601   -0.269153
      7          1           0        3.384905   -0.596914   -2.257473
      8          1           0        5.333877   -0.042300    1.286578
      9          1           0        6.113973   -0.177757   -0.298359
     10          6           0        2.982985   -0.080962    0.369353
     11          1           0        3.182546    0.389231    1.327963
     12          6           0        1.691861   -0.097979   -0.061310
     13          6           0        0.679918    0.510956    0.778819
     14          1           0        1.418705   -0.572582   -0.991046
     15          8           0        0.981216    1.026097    1.870135
     16          6           0       -0.744011    0.511825    0.349841
     17          6           0       -1.236917    1.596885   -0.408202
     18          6           0       -1.627245   -0.532484    0.667212
     19          8           0       -0.474331    2.628232   -0.782767
     20          6           0       -2.584163    1.618324   -0.789398
     21          6           0       -2.949110   -0.505807    0.278140
     22          1           0       -1.294338   -1.394117    1.230618
     23          1           0        0.433085    2.434756   -0.449635
     24          1           0       -2.939809    2.471775   -1.354004
     25          6           0       -3.432338    0.586592   -0.446999
     26          1           0       -4.477734    0.627368   -0.732317
     27          8           0       -3.771809   -1.537927    0.662963
     28          6           0       -4.334108   -2.280824   -0.402284
     29          1           0       -5.004223   -1.670725   -1.018590
     30          1           0       -3.548555   -2.701981   -1.040886
     31          1           0       -4.908737   -3.089412    0.049127
 ---------------------------------------------------------------------
 Rotational constants (GHZ):      0.9436344      0.2335283      0.2117080
 Standard basis: 6-311++G(d,p) (5D, 7F)
 There are   473 symmetry adapted cartesian basis functions of A   symmetry.
 There are   457 symmetry adapted basis functions of A   symmetry.
   457 basis functions,   711 primitive gaussians,   473 cartesian basis functions
    59 alpha electrons       59 beta electrons
       nuclear repulsion energy      1050.8387255309 Hartrees.
 NAtoms=   31 NActive=   31 NUniq=   31 SFac= 1.00D+00 NAtFMM=   60 NAOKFM=F Big=F
 Integral buffers will be    131072 words long.
 Raffenetti 1 integral format.
 Two-electron integral symmetry is turned on.
 Nuclear repulsion after empirical dispersion term =     1050.8204057673 Hartrees.
 One-electron integrals computed using PRISM.
 NBasis=   457 RedAO= T EigKep=  3.04D-06  NBF=   457
 NBsUse=   455 1.00D-06 EigRej=  6.85D-07 NBFU=   455
 ExpMin= 3.60D-02 ExpMax= 8.59D+03 ExpMxC= 1.30D+03 IAcc=3 IRadAn=         5 AccDes= 0.00D+00
 Harris functional with IExCor= 4639 and IRadAn=       5 diagonalized for initial guess.
 HarFok:  IExCor= 4639 AccDes= 0.00D+00 IRadAn=         5 IDoV= 1 UseB2=F ITyADJ=14
 ICtDFT=  3500011 ScaDFX=  1.000000  1.000000  1.000000  1.000000
 FoFCou: FMM=F IPFlag=           0 FMFlag=      100000 FMFlg1=           0
         NFxFlg=           0 DoJE=T BraDBF=F KetDBF=T FulRan=T
         wScrn=  0.000000 ICntrl=     500 IOpCl=  0 I1Cent=   200000004 NGrid=           0
         NMat0=    1 NMatS0=      1 NMatT0=    0 NMatD0=    1 NMtDS0=    0 NMtDT0=    0
 Petite list used in FoFCou.
 Requested convergence on RMS density matrix=1.00D-08 within 128 cycles.
 Requested convergence on MAX density matrix=1.00D-06.
 Requested convergence on             energy=1.00D-06.
 No special actions if energy rises.
 SCF Done:  E(RwB97XD) =  -746.644785668     A.U. after   17 cycles
            NFock= 17  Conv=0.54D-08     -V/T= 2.0039
 DoSCS=F DFT=T ScalE2(SS,OS)=  1.000000  1.000000
 ExpMin= 3.60D-02 ExpMax= 8.59D+03 ExpMxC= 1.30D+03 IAcc=3 IRadAn=         5 AccDes= 0.00D+00
 HarFok:  IExCor=  205 AccDes= 0.00D+00 IRadAn=         5 IDoV=-2 UseB2=F ITyADJ=14
 ICtDFT= 12500011 ScaDFX=  1.000000  1.000000  1.000000  1.000000
 Range of M.O.s used for correlation:    17   455
 NBasis=   457 NAE=    59 NBE=    59 NFC=    16 NFV=     0
 NROrb=    439 NOA=    43 NOB=    43 NVA=   396 NVB=   396

 **** Warning!!: The largest alpha MO coefficient is  0.10356698D+03

 Would need an additional         29152300000 words for in-memory AO integral storage.
 Orbital symmetries:
       Occupied  (A) (A) (A) (A) (A) (A) (A) (A) (A) (A) (A) (A)
                 (A) (A) (A) (A) (A) (A) (A) (A) (A) (A) (A) (A)
                 (A) (A) (A) (A) (A) (A) (A) (A) (A) (A) (A) (A)
                 (A) (A) (A) (A) (A) (A) (A) (A) (A) (A) (A) (A)
                 (A) (A) (A) (A) (A) (A) (A) (A) (A) (A) (A)
       Virtual   (A) (A) (A) (A) (A) (A) (A) (A) (A) (A) (A) (A)
                 (A) (A) (A) (A) (A) (A) (A) (A) (A) (A) (A) (A)
                 (A) (A) (A) (A) (A) (A) (A) (A) (A) (A) (A) (A)
                 (A) (A) (A) (A) (A) (A) (A) (A) (A) (A) (A) (A)
                 (A) (A) (A) (A) (A) (A) (A) (A) (A) (A) (A) (A)
                 (A) (A) (A) (A) (A) (A) (A) (A) (A) (A) (A) (A)
                 (A) (A) (A) (A) (A) (A) (A) (A) (A) (A) (A) (A)
                 (A) (A) (A) (A) (A) (A) (A) (A) (A) (A) (A) (A)
                 (A) (A) (A) (A) (A) (A) (A) (A) (A) (A) (A) (A)
                 (A) (A) (A) (A) (A) (A) (A) (A) (A) (A) (A) (A)
                 (A) (A) (A) (A) (A) (A) (A) (A) (A) (A) (A) (A)
                 (A) (A) (A) (A) (A) (A) (A) (A) (A) (A) (A) (A)
                 (A) (A) (A) (A) (A) (A) (A) (A) (A) (A) (A) (A)
                 (A) (A) (A) (A) (A) (A) (A) (A) (A) (A) (A) (A)
                 (A) (A) (A) (A) (A) (A) (A) (A) (A) (A) (A) (A)
                 (A) (A) (A) (A) (A) (A) (A) (A) (A) (A) (A) (A)
                 (A) (A) (A) (A) (A) (A) (A) (A) (A) (A) (A) (A)
                 (A) (A) (A) (A) (A) (A) (A) (A) (A) (A) (A) (A)
                 (A) (A) (A) (A) (A) (A) (A) (A) (A) (A) (A) (A)
                 (A) (A) (A) (A) (A) (A) (A) (A) (A) (A) (A) (A)
                 (A) (A) (A) (A) (A) (A) (A) (A) (A) (A) (A) (A)
                 (A) (A) (A) (A) (A) (A) (A) (A) (A) (A) (A) (A)
                 (A) (A) (A) (A) (A) (A) (A) (A) (A) (A) (A) (A)
                 (A) (A) (A) (A) (A) (A) (A) (A) (A) (A) (A) (A)
                 (A) (A) (A) (A) (A) (A) (A) (A) (A) (A) (A) (A)
                 (A) (A) (A) (A) (A) (A) (A) (A) (A) (A) (A) (A)
                 (A) (A) (A) (A) (A) (A) (A) (A) (A) (A) (A) (A)
                 (A) (A) (A) (A) (A) (A) (A) (A) (A) (A) (A) (A)
                 (A) (A) (A) (A) (A) (A) (A) (A) (A) (A) (A) (A)
                 (A) (A) (A) (A) (A) (A) (A) (A) (A) (A) (A) (A)
                 (A) (A) (A) (A) (A) (A) (A) (A) (A) (A) (A) (A)
                 (A) (A) (A) (A) (A) (A) (A) (A) (A) (A) (A) (A)
                 (A) (A) (A) (A) (A) (A) (A) (A) (A) (A) (A) (A)
     8 initial guesses have been made.
 Convergence on wavefunction:    0.000001000000000
 Iteration     1 Dimension     8 NMult     0 NNew      8
 CISAX will form     8 AO SS matrices at one time.
 Iteration     2 Dimension    12 NMult     8 NNew      4
 Iteration     3 Dimension    16 NMult    12 NNew      4
 Iteration     4 Dimension    20 NMult    16 NNew      4
 Iteration     5 Dimension    24 NMult    20 NNew      4
 Iteration     6 Dimension    28 NMult    24 NNew      4
 Iteration     7 Dimension    32 NMult    28 NNew      4
 Iteration     8 Dimension    36 NMult    32 NNew      4
 Iteration     9 Dimension    40 NMult    36 NNew      4
 Iteration    10 Dimension    44 NMult    40 NNew      4
 Iteration    11 Dimension    48 NMult    44 NNew      4
 Iteration    12 Dimension    52 NMult    48 NNew      4
 ***********************************************************************
 Excited states from <AA,BB:AA,BB> singles matrix:
 ***********************************************************************
 
 Ground to excited state transition densities written to RWF  633
 Ground to excited state transition electric dipole moments (Au):
       state          X           Y           Z        Dip. S.      Osc.
         1        -0.0191      0.0267      0.0049      0.0011      0.0001
 Ground to excited state transition velocity dipole moments (Au):
       state          X           Y           Z        Dip. S.      Osc.
         1         0.0024      0.0007     -0.0033      0.0000      0.0001
 Ground to excited state transition magnetic dipole moments (Au):
       state          X           Y           Z
         1        -0.1888     -0.3042     -0.6899
 Ground to excited state transition velocity quadrupole moments (Au):
       state          XX          YY          ZZ          XY          XZ          YZ
         1         0.0290      0.0099     -0.0033     -0.0285      0.0068      0.0015
 <0|del|b> * <b|rxdel|0> + <0|del|b> * <b|delr+rdel|0>
 Rotatory Strengths (R) in cgs (10**-40 erg-esu-cm/Gauss)
       state          XX          YY          ZZ    R(velocity)    E-M Angle
         1         5.3710      4.2785     -1.6656      2.6613       60.33
 1/2[<0|r|b>*<b|rxdel|0> + (<0|rxdel|b>*<b|r|0>)*]
 Rotatory Strengths (R) in cgs (10**-40 erg-esu-cm/Gauss)
       state          XX          YY          ZZ     R(length)
         1        -2.5484      5.7421      2.3966      1.8634
  1/2[<0|del|b>*<b|r|0> + (<0|r|b>*<b|del|0>)*] (Au)
       state          X           Y           Z        Dip. S.   Osc.(frdel)
         1         0.0000      0.0000      0.0000      0.0000      0.0000

 Excitation energies and oscillator strengths:
 
 Excited State   1:      Singlet-A      3.8279 eV  323.89 nm  f=0.0001  <S**2>=0.000
      56 -> 60        -0.35880
      57 -> 60         0.50224
      59 -> 60        -0.26079
 This state for optimization and/or second-order correction.
 Total Energy, E(TD-HF/TD-KS) =  -746.504111539    
 Copying the excited state density for this state as the 1-particle RhoCI density.
 SavETr:  write IOETrn=   770 NScale= 10 NData=  16 NLR=1 NState=    1 LETran=      28.
          IDoAtm=1111111111111111111111111111111
          Differentiating once with respect to electric field.
                with respect to dipole field.
          Differentiating once with respect to nuclear coordinates.
          There are     1 degrees of freedom in the 1st order CPHF.  IDoFFX=0 NUNeed=     1.
 LinEq1:  Iter=  0 NonCon=     1 RMS=7.31D-03 Max=4.76D-01 NDo=     1
 AX will form     1 AO Fock derivatives at one time.
 LinEq1:  Iter=  1 NonCon=     1 RMS=1.95D-03 Max=7.71D-02 NDo=     1
 LinEq1:  Iter=  2 NonCon=     1 RMS=1.22D-03 Max=5.16D-02 NDo=     1
 LinEq1:  Iter=  3 NonCon=     1 RMS=5.81D-04 Max=3.21D-02 NDo=     1
 LinEq1:  Iter=  4 NonCon=     1 RMS=3.01D-04 Max=1.09D-02 NDo=     1
 LinEq1:  Iter=  5 NonCon=     1 RMS=1.20D-04 Max=5.56D-03 NDo=     1
 LinEq1:  Iter=  6 NonCon=     1 RMS=5.85D-05 Max=1.94D-03 NDo=     1
 LinEq1:  Iter=  7 NonCon=     1 RMS=3.02D-05 Max=1.42D-03 NDo=     1
 LinEq1:  Iter=  8 NonCon=     1 RMS=1.18D-05 Max=4.83D-04 NDo=     1
 LinEq1:  Iter=  9 NonCon=     1 RMS=6.22D-06 Max=1.76D-04 NDo=     1
 LinEq1:  Iter= 10 NonCon=     1 RMS=2.64D-06 Max=1.01D-04 NDo=     1
 LinEq1:  Iter= 11 NonCon=     1 RMS=1.14D-06 Max=3.20D-05 NDo=     1
 LinEq1:  Iter= 12 NonCon=     1 RMS=5.06D-07 Max=1.36D-05 NDo=     1
 LinEq1:  Iter= 13 NonCon=     1 RMS=2.62D-07 Max=6.38D-06 NDo=     1
 LinEq1:  Iter= 14 NonCon=     1 RMS=1.11D-07 Max=3.75D-06 NDo=     1
 LinEq1:  Iter= 15 NonCon=     1 RMS=4.95D-08 Max=2.12D-06 NDo=     1
 LinEq1:  Iter= 16 NonCon=     1 RMS=2.22D-08 Max=9.95D-07 NDo=     1
 LinEq1:  Iter= 17 NonCon=     1 RMS=1.24D-08 Max=5.08D-07 NDo=     1
 LinEq1:  Iter= 18 NonCon=     1 RMS=5.26D-09 Max=1.65D-07 NDo=     1
 LinEq1:  Iter= 19 NonCon=     1 RMS=2.28D-09 Max=4.35D-08 NDo=     1
 LinEq1:  Iter= 20 NonCon=     1 RMS=9.84D-10 Max=2.56D-08 NDo=     1
 LinEq1:  Iter= 21 NonCon=     1 RMS=2.87D-10 Max=5.25D-09 NDo=     1
 LinEq1:  Iter= 22 NonCon=     1 RMS=9.50D-11 Max=2.43D-09 NDo=     1
 LinEq1:  Iter= 23 NonCon=     1 RMS=4.79D-11 Max=1.69D-09 NDo=     1
 LinEq1:  Iter= 24 NonCon=     1 RMS=2.62D-11 Max=1.48D-09 NDo=     1
 LinEq1:  Iter= 25 NonCon=     0 RMS=1.28D-11 Max=2.31D-10 NDo=     1
 Linear equations converged to 1.000D-10 1.000D-09 after    25 iterations.
 End of Minotr F.D. properties file   721 does not exist.
 End of Minotr F.D. properties file   722 does not exist.
 End of Minotr F.D. properties file   788 does not exist.

 **********************************************************************

            Population analysis using the SCF density.

 **********************************************************************

 Orbital symmetries:
       Occupied  (A) (A) (A) (A) (A) (A) (A) (A) (A) (A) (A) (A)
                 (A) (A) (A) (A) (A) (A) (A) (A) (A) (A) (A) (A)
                 (A) (A) (A) (A) (A) (A) (A) (A) (A) (A) (A) (A)
                 (A) (A) (A) (A) (A) (A) (A) (A) (A) (A) (A) (A)
                 (A) (A) (A) (A) (A) (A) (A) (A) (A) (A) (A)
       Virtual   (A) (A) (A) (A) (A) (A) (A) (A) (A) (A) (A) (A)
                 (A) (A) (A) (A) (A) (A) (A) (A) (A) (A) (A) (A)
                 (A) (A) (A) (A) (A) (A) (A) (A) (A) (A) (A) (A)
                 (A) (A) (A) (A) (A) (A) (A) (A) (A) (A) (A) (A)
                 (A) (A) (A) (A) (A) (A) (A) (A) (A) (A) (A) (A)
                 (A) (A) (A) (A) (A) (A) (A) (A) (A) (A) (A) (A)
                 (A) (A) (A) (A) (A) (A) (A) (A) (A) (A) (A) (A)
                 (A) (A) (A) (A) (A) (A) (A) (A) (A) (A) (A) (A)
                 (A) (A) (A) (A) (A) (A) (A) (A) (A) (A) (A) (A)
                 (A) (A) (A) (A) (A) (A) (A) (A) (A) (A) (A) (A)
                 (A) (A) (A) (A) (A) (A) (A) (A) (A) (A) (A) (A)
                 (A) (A) (A) (A) (A) (A) (A) (A) (A) (A) (A) (A)
                 (A) (A) (A) (A) (A) (A) (A) (A) (A) (A) (A) (A)
                 (A) (A) (A) (A) (A) (A) (A) (A) (A) (A) (A) (A)
                 (A) (A) (A) (A) (A) (A) (A) (A) (A) (A) (A) (A)
                 (A) (A) (A) (A) (A) (A) (A) (A) (A) (A) (A) (A)
                 (A) (A) (A) (A) (A) (A) (A) (A) (A) (A) (A) (A)
                 (A) (A) (A) (A) (A) (A) (A) (A) (A) (A) (A) (A)
                 (A) (A) (A) (A) (A) (A) (A) (A) (A) (A) (A) (A)
                 (A) (A) (A) (A) (A) (A) (A) (A) (A) (A) (A) (A)
                 (A) (A) (A) (A) (A) (A) (A) (A) (A) (A) (A) (A)
                 (A) (A) (A) (A) (A) (A) (A) (A) (A) (A) (A) (A)
                 (A) (A) (A) (A) (A) (A) (A) (A) (A) (A) (A) (A)
                 (A) (A) (A) (A) (A) (A) (A) (A) (A) (A) (A) (A)
                 (A) (A) (A) (A) (A) (A) (A) (A) (A) (A) (A) (A)
                 (A) (A) (A) (A) (A) (A) (A) (A) (A) (A) (A) (A)
                 (A) (A) (A) (A) (A) (A) (A) (A) (A) (A) (A) (A)
                 (A) (A) (A) (A) (A) (A) (A) (A) (A) (A) (A) (A)
                 (A) (A) (A) (A) (A) (A) (A) (A) (A) (A) (A) (A)
                 (A) (A) (A) (A) (A) (A) (A) (A) (A) (A) (A) (A)
                 (A) (A) (A) (A) (A) (A) (A) (A) (A) (A) (A) (A)
                 (A) (A) (A) (A) (A) (A) (A) (A) (A) (A) (A) (A)
                 (A) (A) (A) (A) (A) (A) (A) (A) (A) (A) (A) (A)
 The electronic state is 1-A.
 Alpha  occ. eigenvalues --  -19.27820 -19.25929 -19.21530 -14.49504 -10.36757
 Alpha  occ. eigenvalues --  -10.34923 -10.34687 -10.34214 -10.33883 -10.33102
 Alpha  occ. eigenvalues --  -10.32750 -10.29374 -10.28569 -10.28538 -10.28142
 Alpha  occ. eigenvalues --  -10.27503  -1.17416  -1.15521  -1.12024  -1.09156
 Alpha  occ. eigenvalues --   -0.95275  -0.89527  -0.86263  -0.85547  -0.84546
 Alpha  occ. eigenvalues --   -0.80381  -0.78160  -0.74460  -0.69588  -0.68385
 Alpha  occ. eigenvalues --   -0.65259  -0.63502  -0.62223  -0.59991  -0.58801
 Alpha  occ. eigenvalues --   -0.58222  -0.57569  -0.54827  -0.54593  -0.52638
 Alpha  occ. eigenvalues --   -0.52135  -0.51936  -0.51563  -0.50701  -0.49805
 Alpha  occ. eigenvalues --   -0.49729  -0.49654  -0.48233  -0.46754  -0.46174
 Alpha  occ. eigenvalues --   -0.44136  -0.42990  -0.41602  -0.40740  -0.36123
 Alpha  occ. eigenvalues --   -0.33768  -0.32171  -0.29804  -0.28242
 Alpha virt. eigenvalues --    0.01446   0.02626   0.04175   0.04802   0.05366
 Alpha virt. eigenvalues --    0.05437   0.05761   0.06176   0.07009   0.07417
 Alpha virt. eigenvalues --    0.07551   0.07920   0.08274   0.08406   0.09100
 Alpha virt. eigenvalues --    0.09658   0.10208   0.10882   0.12172   0.12552
 Alpha virt. eigenvalues --    0.12601   0.13150   0.13796   0.14022   0.14631
 Alpha virt. eigenvalues --    0.14826   0.15053   0.15543   0.15773   0.16150
 Alpha virt. eigenvalues --    0.16745   0.16883   0.16984   0.17365   0.17631
 Alpha virt. eigenvalues --    0.18131   0.18173   0.18581   0.18756   0.19156
 Alpha virt. eigenvalues --    0.19548   0.20332   0.20598   0.21075   0.21269
 Alpha virt. eigenvalues --    0.21376   0.22004   0.22231   0.22703   0.22929
 Alpha virt. eigenvalues --    0.23364   0.23608   0.23979   0.24515   0.24655
 Alpha virt. eigenvalues --    0.25016   0.25949   0.26365   0.26963   0.27134
 Alpha virt. eigenvalues --    0.27667   0.28024   0.28267   0.28848   0.29488
 Alpha virt. eigenvalues --    0.29867   0.30178   0.30678   0.31593   0.31835
 Alpha virt. eigenvalues --    0.31989   0.32439   0.32805   0.33385   0.33593
 Alpha virt. eigenvalues --    0.34123   0.34287   0.34618   0.34967   0.35634
 Alpha virt. eigenvalues --    0.35781   0.36283   0.36774   0.37130   0.37253
 Alpha virt. eigenvalues --    0.37805   0.38180   0.38784   0.39343   0.40325
 Alpha virt. eigenvalues --    0.40486   0.41228   0.41982   0.42785   0.43311
 Alpha virt. eigenvalues --    0.43501   0.44028   0.45097   0.45284   0.46262
 Alpha virt. eigenvalues --    0.46554   0.47335   0.47827   0.48567   0.49496
 Alpha virt. eigenvalues --    0.49812   0.50983   0.51301   0.52292   0.53445
 Alpha virt. eigenvalues --    0.53945   0.54883   0.55903   0.56736   0.57172
 Alpha virt. eigenvalues --    0.58982   0.60827   0.62087   0.63505   0.64836
 Alpha virt. eigenvalues --    0.65139   0.66091   0.66451   0.67176   0.68413
 Alpha virt. eigenvalues --    0.68763   0.69391   0.69757   0.70645   0.70962
 Alpha virt. eigenvalues --    0.71367   0.71569   0.72204   0.72935   0.73138
 Alpha virt. eigenvalues --    0.73260   0.74390   0.75859   0.76524   0.76612
 Alpha virt. eigenvalues --    0.77655   0.78235   0.78956   0.79105   0.80718
 Alpha virt. eigenvalues --    0.81134   0.81431   0.82005   0.82639   0.84293
 Alpha virt. eigenvalues --    0.85143   0.85403   0.85990   0.87310   0.88255
 Alpha virt. eigenvalues --    0.89125   0.91300   0.93320   0.94239   0.95801
 Alpha virt. eigenvalues --    0.96125   0.96707   0.98287   0.99317   1.00120
 Alpha virt. eigenvalues --    1.00688   1.01958   1.03137   1.03792   1.04284
 Alpha virt. eigenvalues --    1.05338   1.06303   1.06929   1.10169   1.10477
 Alpha virt. eigenvalues --    1.12125   1.13658   1.14159   1.15108   1.16632
 Alpha virt. eigenvalues --    1.16872   1.17958   1.18947   1.21311   1.22759
 Alpha virt. eigenvalues --    1.24153   1.25483   1.27586   1.28978   1.29788
 Alpha virt. eigenvalues --    1.31596   1.32951   1.35286   1.35846   1.37262
 Alpha virt. eigenvalues --    1.38043   1.39775   1.40414   1.42122   1.42469
 Alpha virt. eigenvalues --    1.43577   1.44891   1.48113   1.50598   1.51469
 Alpha virt. eigenvalues --    1.52208   1.53411   1.55023   1.56659   1.57133
 Alpha virt. eigenvalues --    1.58887   1.60324   1.60912   1.62409   1.62963
 Alpha virt. eigenvalues --    1.63618   1.65702   1.66411   1.67073   1.67291
 Alpha virt. eigenvalues --    1.68290   1.69654   1.71313   1.71796   1.72515
 Alpha virt. eigenvalues --    1.73556   1.74566   1.76229   1.77068   1.78065
 Alpha virt. eigenvalues --    1.78392   1.79632   1.80127   1.80686   1.81895
 Alpha virt. eigenvalues --    1.83028   1.83212   1.85246   1.85571   1.87128
 Alpha virt. eigenvalues --    1.87816   1.89067   1.90435   1.91760   1.93526
 Alpha virt. eigenvalues --    1.95044   1.98011   2.00301   2.02136   2.03492
 Alpha virt. eigenvalues --    2.04186   2.04645   2.05961   2.06686   2.08073
 Alpha virt. eigenvalues --    2.09263   2.10266   2.11132   2.12699   2.14402
 Alpha virt. eigenvalues --    2.16182   2.18248   2.19701   2.19989   2.21171
 Alpha virt. eigenvalues --    2.22367   2.23475   2.24092   2.25580   2.26260
 Alpha virt. eigenvalues --    2.26715   2.31004   2.31757   2.35184   2.40417
 Alpha virt. eigenvalues --    2.42232   2.42618   2.44306   2.46814   2.50418
 Alpha virt. eigenvalues --    2.51871   2.53735   2.54047   2.54823   2.55605
 Alpha virt. eigenvalues --    2.58762   2.60887   2.61655   2.62141   2.62721
 Alpha virt. eigenvalues --    2.64371   2.64656   2.66398   2.67497   2.70836
 Alpha virt. eigenvalues --    2.71474   2.72911   2.73137   2.75224   2.76232
 Alpha virt. eigenvalues --    2.78101   2.80420   2.81280   2.82419   2.83753
 Alpha virt. eigenvalues --    2.84169   2.84956   2.86629   2.87165   2.88543
 Alpha virt. eigenvalues --    2.91149   2.92842   2.93809   2.94810   2.96626
 Alpha virt. eigenvalues --    2.97586   2.99677   3.01688   3.03439   3.05639
 Alpha virt. eigenvalues --    3.08832   3.10455   3.11636   3.12211   3.13825
 Alpha virt. eigenvalues --    3.15594   3.16374   3.19815   3.22464   3.24297
 Alpha virt. eigenvalues --    3.26982   3.28144   3.29701   3.30668   3.35024
 Alpha virt. eigenvalues --    3.38911   3.40539   3.43451   3.44804   3.49978
 Alpha virt. eigenvalues --    3.53513   3.56657   3.61365   3.63659   3.66733
 Alpha virt. eigenvalues --    3.68673   3.70606   3.72833   3.77489   3.80134
 Alpha virt. eigenvalues --    3.81864   3.83043   3.84722   3.89152   3.92043
 Alpha virt. eigenvalues --    3.93270   3.93972   3.99177   4.00490   4.08892
 Alpha virt. eigenvalues --    4.13516   4.14029   4.17585   4.25943   4.28069
 Alpha virt. eigenvalues --    4.31820   4.36732   4.51259   4.95543   4.98159
 Alpha virt. eigenvalues --    5.14477   5.17231   5.24785   5.26341   5.37856
 Alpha virt. eigenvalues --    5.50579   5.57800   5.84481   5.89688   5.92054
 Alpha virt. eigenvalues --   23.73314  23.94807  24.02896  24.04554  24.05022
 Alpha virt. eigenvalues --   24.05414  24.06448  24.11566  24.18662  24.25894
 Alpha virt. eigenvalues --   24.29729  24.33690  35.69265  50.08790  50.10955
 Alpha virt. eigenvalues --   50.17349
          Condensed to atoms (all electrons):
               1          2          3          4          5          6
     1  C    5.232405   0.390250   0.415990  -0.073328   0.014844   0.247068
     2  H    0.390250   0.514032  -0.021829   0.014221  -0.006899  -0.048372
     3  H    0.415990  -0.021829   0.523298  -0.005638   0.000797  -0.053017
     4  C   -0.073328   0.014221  -0.005638   5.182476   0.410186   0.248312
     5  H    0.014844  -0.006899   0.000797   0.410186   0.553373  -0.048051
     6  N    0.247068  -0.048372  -0.053017   0.248312  -0.048051   6.835938
     7  H    0.411451  -0.023719  -0.049644   0.003865   0.002025  -0.041452
     8  H   -0.004253   0.003298  -0.000725   0.404739  -0.027981  -0.094484
     9  H   -0.010545  -0.004602   0.002592   0.411795  -0.058833  -0.045435
    10  C   -0.136364   0.051127   0.004771  -0.016019  -0.033527   0.278700
    11  H    0.008485   0.001940  -0.002814  -0.023546   0.002456  -0.055782
    12  C    0.157016  -0.035895  -0.002081  -0.232018   0.009374  -0.289311
    13  C   -0.117220  -0.010681   0.000811  -0.021850  -0.003003  -0.029729
    14  H    0.005970  -0.004623  -0.008494  -0.012566   0.000128  -0.034218
    15  O   -0.000932   0.000378   0.000491   0.006823  -0.000154   0.010881
    16  C   -0.122829  -0.007227  -0.000520   0.032947  -0.000005  -0.026700
    17  C    0.005174   0.000199   0.001238   0.012051   0.001224   0.019280
    18  C    0.018821   0.002187  -0.001892  -0.004686  -0.001674  -0.005010
    19  O    0.003690   0.000353   0.000008  -0.000316  -0.000011  -0.000245
    20  C    0.012586   0.000614  -0.001431   0.000187   0.000119   0.004501
    21  C   -0.001742   0.000216   0.001311   0.000061  -0.000377  -0.002796
    22  H    0.001419   0.000215  -0.000734  -0.000075  -0.000019   0.000339
    23  H    0.000549  -0.000005   0.000319   0.000556   0.000074   0.000669
    24  H    0.000335   0.000030  -0.000045  -0.000008  -0.000001   0.000082
    25  C   -0.004824  -0.000329   0.001426   0.000562  -0.000013  -0.001072
    26  H   -0.000121  -0.000008   0.000021   0.000011   0.000000  -0.000028
    27  O   -0.000001  -0.000001   0.000001   0.000003   0.000000   0.000008
    28  C   -0.000408  -0.000038  -0.000017   0.000029   0.000001  -0.000028
    29  H    0.000049   0.000004   0.000000  -0.000001   0.000001   0.000010
    30  H    0.000101   0.000017  -0.000032   0.000004  -0.000001   0.000001
    31  H   -0.000027  -0.000003   0.000005   0.000001   0.000000  -0.000002
               7          8          9         10         11         12
     1  C    0.411451  -0.004253  -0.010545  -0.136364   0.008485   0.157016
     2  H   -0.023719   0.003298  -0.004602   0.051127   0.001940  -0.035895
     3  H   -0.049644  -0.000725   0.002592   0.004771  -0.002814  -0.002081
     4  C    0.003865   0.404739   0.411795  -0.016019  -0.023546  -0.232018
     5  H    0.002025  -0.027981  -0.058833  -0.033527   0.002456   0.009374
     6  N   -0.041452  -0.094484  -0.045435   0.278700  -0.055782  -0.289311
     7  H    0.527839  -0.002945  -0.001388  -0.031768   0.002105   0.011333
     8  H   -0.002945   0.537630  -0.024126   0.084839  -0.009969  -0.017025
     9  H   -0.001388  -0.024126   0.551812  -0.025598   0.000562   0.025513
    10  C   -0.031768   0.084839  -0.025598   8.828807   0.398345  -2.816461
    11  H    0.002105  -0.009969   0.000562   0.398345   0.475807  -0.055092
    12  C    0.011333  -0.017025   0.025513  -2.816461  -0.055092  11.442753
    13  C    0.000213   0.002676  -0.000178  -2.026063   0.015397   0.998408
    14  H    0.000803  -0.000988   0.001647  -0.256612   0.000144   0.583130
    15  O    0.000484  -0.000678  -0.000150   0.143314   0.036999  -0.567597
    16  C    0.005198   0.005098   0.000619   1.218563  -0.004813  -3.460722
    17  C   -0.001030  -0.002096  -0.001439   0.158515   0.003650  -0.009858
    18  C    0.000001   0.002590   0.000850   0.108924  -0.012171   0.377165
    19  O   -0.000826  -0.000025  -0.000035  -0.004063   0.001900   0.022628
    20  C   -0.001361  -0.000419  -0.000158  -0.155903  -0.000617   0.370555
    21  C    0.001922   0.000897   0.000147   0.253625  -0.006362   0.020057
    22  H    0.000151  -0.000040  -0.000024  -0.016568   0.001308   0.010008
    23  H   -0.000944   0.000061  -0.000079   0.003800  -0.000359   0.022726
    24  H   -0.000012  -0.000003  -0.000003  -0.003458   0.000032   0.008194
    25  C    0.000111   0.000113   0.000022   0.094506  -0.000716  -0.100018
    26  H    0.000009   0.000002   0.000001   0.002259  -0.000004  -0.006988
    27  O   -0.000001   0.000001   0.000000   0.000006  -0.000055  -0.004673
    28  C    0.000027   0.000002   0.000003  -0.000963  -0.000165  -0.013761
    29  H   -0.000015  -0.000001   0.000000  -0.000039   0.000023   0.001145
    30  H    0.000022   0.000000   0.000000   0.000422   0.000015   0.000453
    31  H    0.000000   0.000000   0.000000  -0.000150  -0.000002  -0.000116
              13         14         15         16         17         18
     1  C   -0.117220   0.005970  -0.000932  -0.122829   0.005174   0.018821
     2  H   -0.010681  -0.004623   0.000378  -0.007227   0.000199   0.002187
     3  H    0.000811  -0.008494   0.000491  -0.000520   0.001238  -0.001892
     4  C   -0.021850  -0.012566   0.006823   0.032947   0.012051  -0.004686
     5  H   -0.003003   0.000128  -0.000154  -0.000005   0.001224  -0.001674
     6  N   -0.029729  -0.034218   0.010881  -0.026700   0.019280  -0.005010
     7  H    0.000213   0.000803   0.000484   0.005198  -0.001030   0.000001
     8  H    0.002676  -0.000988  -0.000678   0.005098  -0.002096   0.002590
     9  H   -0.000178   0.001647  -0.000150   0.000619  -0.001439   0.000850
    10  C   -2.026063  -0.256612   0.143314   1.218563   0.158515   0.108924
    11  H    0.015397   0.000144   0.036999  -0.004813   0.003650  -0.012171
    12  C    0.998408   0.583130  -0.567597  -3.460722  -0.009858   0.377165
    13  C   10.596646   0.123785   0.600477  -0.630363  -1.321588  -1.036641
    14  H    0.123785   0.539580  -0.014878  -0.026414  -0.001407  -0.039845
    15  O    0.600477  -0.014878   7.943533   0.334925  -0.142035  -0.032307
    16  C   -0.630363  -0.026414   0.334925  14.251125  -1.257115  -1.315626
    17  C   -1.321588  -0.001407  -0.142035  -1.257115  15.436271  -5.367098
    18  C   -1.036641  -0.039845  -0.032307  -1.315626  -5.367098  17.917637
    19  O    0.029113  -0.007771   0.002619   0.118137   0.248013   0.057583
    20  C   -0.581117   0.037911  -0.027806  -3.542509  -1.142645   3.575426
    21  C   -0.346836  -0.063730  -0.020548  -1.611983  -0.394595  -1.765772
    22  H   -0.030101   0.000336  -0.001309  -0.011003   0.043056   0.593904
    23  H   -0.074629   0.003150  -0.005938  -0.154234   0.018951   0.022844
    24  H   -0.018524   0.000467  -0.000072  -0.123137  -0.190592   0.121075
    25  C    0.135954  -0.024570  -0.003067   0.895067   0.664296  -6.462229
    26  H    0.012159  -0.000308   0.000123   0.116344   0.039656  -0.179005
    27  O    0.003380  -0.000109   0.000062  -0.026482   0.015790  -0.331963
    28  C    0.014727   0.002525  -0.000217  -0.040590   0.024081  -0.021764
    29  H   -0.001929   0.000203  -0.000002  -0.016004   0.004682  -0.012045
    30  H    0.001134  -0.000929   0.000018   0.026201  -0.008021   0.084975
    31  H    0.001730   0.000191  -0.000010   0.002988   0.001364  -0.010718
              19         20         21         22         23         24
     1  C    0.003690   0.012586  -0.001742   0.001419   0.000549   0.000335
     2  H    0.000353   0.000614   0.000216   0.000215  -0.000005   0.000030
     3  H    0.000008  -0.001431   0.001311  -0.000734   0.000319  -0.000045
     4  C   -0.000316   0.000187   0.000061  -0.000075   0.000556  -0.000008
     5  H   -0.000011   0.000119  -0.000377  -0.000019   0.000074  -0.000001
     6  N   -0.000245   0.004501  -0.002796   0.000339   0.000669   0.000082
     7  H   -0.000826  -0.001361   0.001922   0.000151  -0.000944  -0.000012
     8  H   -0.000025  -0.000419   0.000897  -0.000040   0.000061  -0.000003
     9  H   -0.000035  -0.000158   0.000147  -0.000024  -0.000079  -0.000003
    10  C   -0.004063  -0.155903   0.253625  -0.016568   0.003800  -0.003458
    11  H    0.001900  -0.000617  -0.006362   0.001308  -0.000359   0.000032
    12  C    0.022628   0.370555   0.020057   0.010008   0.022726   0.008194
    13  C    0.029113  -0.581117  -0.346836  -0.030101  -0.074629  -0.018524
    14  H   -0.007771   0.037911  -0.063730   0.000336   0.003150   0.000467
    15  O    0.002619  -0.027806  -0.020548  -0.001309  -0.005938  -0.000072
    16  C    0.118137  -3.542509  -1.611983  -0.011003  -0.154234  -0.123137
    17  C    0.248013  -1.142645  -0.394595   0.043056   0.018951  -0.190592
    18  C    0.057583   3.575426  -1.765772   0.593904   0.022844   0.121075
    19  O    7.928530  -0.474022   0.025084  -0.001701   0.275874  -0.029933
    20  C   -0.474022  10.934360  -0.820100   0.096558   0.147602   0.635341
    21  C    0.025084  -0.820100  10.879388  -0.243632  -0.001835   0.036185
    22  H   -0.001701   0.096558  -0.243632   0.484285  -0.000731   0.003785
    23  H    0.275874   0.147602  -0.001835  -0.000731   0.406102   0.001693
    24  H   -0.029933   0.635341   0.036185   0.003785   0.001693   0.487695
    25  C    0.017548  -2.666313   0.554134  -0.149321   0.000788  -0.146013
    26  H    0.001365  -0.151310  -0.222469  -0.004113  -0.000401  -0.022395
    27  O    0.000327  -0.018004   0.609571  -0.014486   0.000273  -0.000816
    28  C   -0.000461   0.051994  -0.214608  -0.000972  -0.000223  -0.000236
    29  H   -0.000098  -0.016394   0.054785   0.000768   0.000036   0.001589
    30  H    0.000258   0.017266  -0.110510  -0.000302  -0.000089  -0.000469
    31  H    0.000005  -0.005444   0.031025  -0.000836  -0.000005  -0.000073
              25         26         27         28         29         30
     1  C   -0.004824  -0.000121  -0.000001  -0.000408   0.000049   0.000101
     2  H   -0.000329  -0.000008  -0.000001  -0.000038   0.000004   0.000017
     3  H    0.001426   0.000021   0.000001  -0.000017   0.000000  -0.000032
     4  C    0.000562   0.000011   0.000003   0.000029  -0.000001   0.000004
     5  H   -0.000013   0.000000   0.000000   0.000001   0.000001  -0.000001
     6  N   -0.001072  -0.000028   0.000008  -0.000028   0.000010   0.000001
     7  H    0.000111   0.000009  -0.000001   0.000027  -0.000015   0.000022
     8  H    0.000113   0.000002   0.000001   0.000002  -0.000001   0.000000
     9  H    0.000022   0.000001   0.000000   0.000003   0.000000   0.000000
    10  C    0.094506   0.002259   0.000006  -0.000963  -0.000039   0.000422
    11  H   -0.000716  -0.000004  -0.000055  -0.000165   0.000023   0.000015
    12  C   -0.100018  -0.006988  -0.004673  -0.013761   0.001145   0.000453
    13  C    0.135954   0.012159   0.003380   0.014727  -0.001929   0.001134
    14  H   -0.024570  -0.000308  -0.000109   0.002525   0.000203  -0.000929
    15  O   -0.003067   0.000123   0.000062  -0.000217  -0.000002   0.000018
    16  C    0.895067   0.116344  -0.026482  -0.040590  -0.016004   0.026201
    17  C    0.664296   0.039656   0.015790   0.024081   0.004682  -0.008021
    18  C   -6.462229  -0.179005  -0.331963  -0.021764  -0.012045   0.084975
    19  O    0.017548   0.001365   0.000327  -0.000461  -0.000098   0.000258
    20  C   -2.666313  -0.151310  -0.018004   0.051994  -0.016394   0.017266
    21  C    0.554134  -0.222469   0.609571  -0.214608   0.054785  -0.110510
    22  H   -0.149321  -0.004113  -0.014486  -0.000972   0.000768  -0.000302
    23  H    0.000788  -0.000401   0.000273  -0.000223   0.000036  -0.000089
    24  H   -0.146013  -0.022395  -0.000816  -0.000236   0.001589  -0.000469
    25  C   12.448938   0.708505  -0.157858   0.028670  -0.022693  -0.019735
    26  H    0.708505   0.538047  -0.010741  -0.004764  -0.009563   0.002164
    27  O   -0.157858  -0.010741   8.064899   0.157748  -0.036970  -0.051949
    28  C    0.028670  -0.004764   0.157748   5.139578   0.402788   0.416685
    29  H   -0.022693  -0.009563  -0.036970   0.402788   0.619404  -0.069242
    30  H   -0.019735   0.002164  -0.051949   0.416685  -0.069242   0.585101
    31  H    0.006008  -0.000609  -0.061354   0.400599  -0.025763  -0.022868
              31
     1  C   -0.000027
     2  H   -0.000003
     3  H    0.000005
     4  C    0.000001
     5  H    0.000000
     6  N   -0.000002
     7  H    0.000000
     8  H    0.000000
     9  H    0.000000
    10  C   -0.000150
    11  H   -0.000002
    12  C   -0.000116
    13  C    0.001730
    14  H    0.000191
    15  O   -0.000010
    16  C    0.002988
    17  C    0.001364
    18  C   -0.010718
    19  O    0.000005
    20  C   -0.005444
    21  C    0.031025
    22  H   -0.000836
    23  H   -0.000005
    24  H   -0.000073
    25  C    0.006008
    26  H   -0.000609
    27  O   -0.061354
    28  C    0.400599
    29  H   -0.025763
    30  H   -0.022868
    31  H    0.512931
 Mulliken charges:
               1
     1  C   -0.453609
     2  H    0.185148
     3  H    0.195836
     4  C   -0.338778
     5  H    0.185948
     6  N    0.129941
     7  H    0.187549
     8  H    0.143813
     9  H    0.177030
    10  C   -0.106966
    11  H    0.223300
    12  C   -0.448841
    13  C   -0.286160
    14  H    0.197492
    15  O   -0.263428
    16  C    1.371061
    17  C   -0.857969
    18  C   -0.283535
    19  O   -0.213528
    20  C   -0.279469
    21  C   -0.640514
    22  H    0.239837
    23  H    0.333405
    24  H    0.239289
    25  C    0.202120
    26  H    0.192160
    27  O   -0.136606
    28  C   -0.340243
    29  H    0.125273
    30  H    0.149311
    31  H    0.171131
 Sum of Mulliken charges =   0.00000
 Mulliken charges with hydrogens summed into heavy atoms:
               1
     1  C    0.114924
     4  C    0.168013
     6  N    0.129941
    10  C    0.116334
    12  C   -0.251349
    13  C   -0.286160
    15  O   -0.263428
    16  C    1.371061
    17  C   -0.857969
    18  C   -0.043698
    19  O    0.119877
    20  C   -0.040180
    21  C   -0.640514
    25  C    0.394281
    27  O   -0.136606
    28  C    0.105471
 Electronic spatial extent (au):  <R**2>=           5294.5788
 Charge=              0.0000 electrons
 Dipole moment (field-independent basis, Debye):
    X=              5.2256    Y=             -3.4785    Z=             -3.9972  Tot=              7.4421
 Quadrupole moment (field-independent basis, Debye-Ang):
   XX=            -61.1770   YY=            -96.1659   ZZ=           -101.9500
   XY=             -2.7995   XZ=              3.1002   YZ=              0.5631
 Traceless Quadrupole moment (field-independent basis, Debye-Ang):
   XX=             25.2539   YY=             -9.7349   ZZ=            -15.5190
   XY=             -2.7995   XZ=              3.1002   YZ=              0.5631
 Octapole moment (field-independent basis, Debye-Ang**2):
  XXX=            119.2088  YYY=            -22.9817  ZZZ=            -13.1263  XYY=             -1.8827
  XXY=            -29.8376  XXZ=            -34.0314  XZZ=             15.1730  YZZ=            -12.0194
  YYZ=             -5.4383  XYZ=             -1.1435
 Hexadecapole moment (field-independent basis, Debye-Ang**3):
 XXXX=          -4486.7381 YYYY=          -1082.1044 ZZZZ=           -542.2931 XXXY=            -42.0112
 XXXZ=            124.1307 YYYX=             62.7477 YYYZ=              9.0645 ZZZX=            -25.4662
 ZZZY=            -12.7782 XXYY=           -991.5250 XXZZ=           -969.5956 YYZZ=           -277.1623
 XXYZ=             36.4865 YYXZ=              7.5926 ZZXY=            -19.1421
 N-N= 1.050820405767D+03 E-N=-3.844445771431D+03  KE= 7.437220016990D+02
 Calling FoFJK, ICntrl=  10005127 FMM=F ISym2X=0 I1Cent= 0 IOpClX= 0 NMat=1 NMatS=1 NMatT=0.
 ***** Axes restored to original set *****
 -------------------------------------------------------------------
 Center     Atomic                   Forces (Hartrees/Bohr)
 Number     Number              X              Y              Z
 -------------------------------------------------------------------
      1        6          -0.000483635    0.004480587   -0.004835683
      2        1           0.000032040   -0.000393346    0.000295475
      3        1          -0.000135070   -0.000040381    0.001805689
      4        6          -0.004085406   -0.001377053    0.003083788
      5        1           0.001209263    0.001095232    0.000055543
      6        7           0.023115807   -0.011800245    0.004452727
      7        1          -0.000479757   -0.001170360    0.000351058
      8        1           0.000036529    0.000085748   -0.000201427
      9        1           0.000857769   -0.000136417   -0.000447483
     10        6          -0.005025469    0.013578136   -0.012139043
     11        1           0.003594217   -0.001188803    0.000559569
     12        6          -0.019171833    0.012062071   -0.009193150
     13        6           0.025819683   -0.065718647    0.066905059
     14        1          -0.008137932   -0.000776708    0.001612844
     15        8          -0.007380376    0.045281590   -0.047977945
     16        6          -0.018202483   -0.000872362    0.001341603
     17        6          -0.007824084    0.010582393    0.009118822
     18        6           0.005250536    0.004051445   -0.004486068
     19        8           0.023221304    0.004921825   -0.010067688
     20        6           0.002959263   -0.002639073   -0.000538262
     21        6          -0.004481089   -0.001836126    0.001731593
     22        1           0.003019328    0.001127606   -0.002227130
     23        1          -0.014465804   -0.008221253    0.001611248
     24        1          -0.000426861    0.000057198    0.000066869
     25        6          -0.000281942    0.000756702    0.001126991
     26        1          -0.000040074    0.000191806   -0.000416575
     27        8           0.001883653   -0.002095575   -0.002155804
     28        6          -0.000383797   -0.000151450    0.000861402
     29        1           0.000018208   -0.000012912   -0.000137100
     30        1          -0.000101984    0.000176198    0.000001709
     31        1           0.000089998   -0.000017825   -0.000158634
 -------------------------------------------------------------------
 Cartesian Forces:  Max     0.066905059 RMS     0.013660136

 GradGradGradGradGradGradGradGradGradGradGradGradGradGradGradGradGradGrad
 Berny optimization.
 FormGI is forming the generalized inverse of G from B-inverse, IUseBI=4.
 Internal  Forces:  Max     0.065435575 RMS     0.007249764
 Search for a local minimum.
 Step number   1 out of a maximum of  150
 All quantities printed in internal units (Hartrees-Bohrs-Radians)
 Mixed Optimization -- RFO/linear search
 Second derivative matrix not updated -- first step.
 ITU=  0
     Eigenvalues ---    0.00936   0.01033   0.01052   0.01191   0.01436
     Eigenvalues ---    0.01438   0.01491   0.01665   0.01990   0.02025
     Eigenvalues ---    0.02025   0.02096   0.02167   0.02173   0.02213
     Eigenvalues ---    0.02227   0.02262   0.02296   0.02457   0.02531
     Eigenvalues ---    0.02535   0.02603   0.07411   0.07426   0.07585
     Eigenvalues ---    0.07633   0.10084   0.10595   0.15997   0.15999
     Eigenvalues ---    0.16000   0.16000   0.16000   0.16000   0.16000
     Eigenvalues ---    0.16000   0.16000   0.16000   0.16000   0.16000
     Eigenvalues ---    0.16000   0.16000   0.16000   0.22000   0.22001
     Eigenvalues ---    0.22362   0.23481   0.24597   0.24773   0.24854
     Eigenvalues ---    0.24974   0.24999   0.24999   0.25000   0.25000
     Eigenvalues ---    0.25000   0.33765   0.34074   0.34087   0.34134
     Eigenvalues ---    0.34152   0.34345   0.34357   0.34829   0.34842
     Eigenvalues ---    0.34843   0.35255   0.35468   0.35593   0.35757
     Eigenvalues ---    0.36114   0.38272   0.38329   0.38458   0.41289
     Eigenvalues ---    0.42210   0.43189   0.44694   0.45628   0.48015
     Eigenvalues ---    0.48978   0.50057   0.50274   0.52713   0.56721
     Eigenvalues ---    0.58058   0.85558
 RFO step:  Lambda=-1.43964087D-02 EMin= 9.36021597D-03
 Linear search not attempted -- first point.
 Iteration  1 RMS(Cart)=  0.06092987 RMS(Int)=  0.00120388
 Iteration  2 RMS(Cart)=  0.00261869 RMS(Int)=  0.00012924
 Iteration  3 RMS(Cart)=  0.00000335 RMS(Int)=  0.00012923
 Iteration  4 RMS(Cart)=  0.00000000 RMS(Int)=  0.00012923
 Variable       Old X    -DE/DX   Delta X   Delta X   Delta X     New X
                                 (Linear)    (Quad)   (Total)
    R1        2.05931   0.00017   0.00000   0.00047   0.00047   2.05978
    R2        2.07184   0.00160   0.00000   0.00450   0.00450   2.07634
    R3        2.73704  -0.00378   0.00000  -0.00947  -0.00947   2.72757
    R4        2.06752   0.00115   0.00000   0.00321   0.00321   2.07073
    R5        2.07074   0.00125   0.00000   0.00352   0.00352   2.07426
    R6        2.73971  -0.00281   0.00000  -0.00706  -0.00706   2.73264
    R7        2.05932   0.00020   0.00000   0.00055   0.00055   2.05987
    R8        2.06732   0.00074   0.00000   0.00206   0.00206   2.06938
    R9        2.53634   0.02251   0.00000   0.03871   0.03871   2.57504
   R10        2.05263  -0.00123   0.00000  -0.00336  -0.00336   2.04927
   R11        2.57222   0.02005   0.00000   0.03702   0.03702   2.60924
   R12        2.73890  -0.01873   0.00000  -0.04710  -0.04710   2.69179
   R13        2.03904   0.00220   0.00000   0.00586   0.00586   2.04490
   R14        2.35050   0.06544   0.00000   0.07522   0.07522   2.42572
   R15        2.81029   0.00575   0.00000   0.01635   0.01635   2.82664
   R16        2.66910  -0.00705   0.00000  -0.01650  -0.01651   2.65258
   R17        2.65331  -0.00669   0.00000  -0.01481  -0.01483   2.63848
   R18        2.52511   0.01102   0.00000   0.01852   0.01852   2.54363
   R19        2.64618  -0.00206   0.00000  -0.00479  -0.00478   2.64141
   R20        2.60441   0.00402   0.00000   0.00829   0.00828   2.61268
   R21        2.04463   0.00146   0.00000   0.00393   0.00393   2.04857
   R22        1.86290  -0.01629   0.00000  -0.03150  -0.03150   1.83140
   R23        2.04723   0.00016   0.00000   0.00043   0.00043   2.04766
   R24        2.60557   0.00147   0.00000   0.00326   0.00328   2.60885
   R25        2.64067   0.00079   0.00000   0.00247   0.00248   2.64315
   R26        2.59808  -0.00289   0.00000  -0.00561  -0.00561   2.59247
   R27        2.04922  -0.00015   0.00000  -0.00041  -0.00041   2.04881
   R28        2.67437   0.00055   0.00000   0.00123   0.00123   2.67560
   R29        2.07105   0.00001   0.00000   0.00002   0.00002   2.07107
   R30        2.07206  -0.00016   0.00000  -0.00046  -0.00046   2.07159
   R31        2.05953  -0.00014   0.00000  -0.00040  -0.00040   2.05913
    A1        1.89835  -0.00066   0.00000  -0.00378  -0.00378   1.89456
    A2        1.90709   0.00027   0.00000   0.00124   0.00124   1.90833
    A3        1.89414  -0.00059   0.00000  -0.00404  -0.00404   1.89010
    A4        1.94249   0.00103   0.00000   0.00624   0.00623   1.94872
    A5        1.89387  -0.00073   0.00000  -0.00355  -0.00357   1.89031
    A6        1.92705   0.00061   0.00000   0.00350   0.00350   1.93055
    A7        1.94091   0.00135   0.00000   0.00821   0.00820   1.94911
    A8        1.89201  -0.00065   0.00000  -0.00439  -0.00439   1.88762
    A9        1.89556  -0.00073   0.00000  -0.00259  -0.00263   1.89293
   A10        1.91290  -0.00037   0.00000  -0.00299  -0.00298   1.90991
   A11        1.92861   0.00073   0.00000   0.00458   0.00456   1.93317
   A12        1.89282  -0.00040   0.00000  -0.00325  -0.00324   1.88958
   A13        2.05818   0.00053   0.00000   0.00147   0.00142   2.05960
   A14        2.09877  -0.00095   0.00000  -0.00422  -0.00426   2.09451
   A15        2.11842   0.00036   0.00000   0.00077   0.00073   2.11914
   A16        2.01993  -0.00207   0.00000  -0.01429  -0.01429   2.00563
   A17        2.21567  -0.00329   0.00000  -0.01405  -0.01405   2.20162
   A18        2.04756   0.00536   0.00000   0.02834   0.02834   2.07590
   A19        2.06420   0.01501   0.00000   0.06409   0.06408   2.12827
   A20        2.11560   0.00066   0.00000   0.01486   0.01485   2.13044
   A21        2.10309  -0.01566   0.00000  -0.07873  -0.07875   2.02434
   A22        2.11000   0.00789   0.00000   0.02976   0.02966   2.13966
   A23        2.09620   0.01042   0.00000   0.03931   0.03923   2.13543
   A24        2.07691  -0.01831   0.00000  -0.06935  -0.06941   2.00750
   A25        2.08221  -0.00188   0.00000  -0.00626  -0.00623   2.07597
   A26        2.13729  -0.00352   0.00000  -0.01245  -0.01243   2.12486
   A27        2.06368   0.00540   0.00000   0.01874   0.01859   2.08227
   A28        2.14626  -0.00468   0.00000  -0.01681  -0.01687   2.12939
   A29        2.08704   0.00080   0.00000   0.00136   0.00115   2.08820
   A30        2.04986   0.00389   0.00000   0.01561   0.01553   2.06539
   A31        2.12367  -0.00390   0.00000  -0.01595  -0.01609   2.10758
   A32        2.11351  -0.00166   0.00000  -0.01269  -0.01266   2.10085
   A33        2.04601   0.00555   0.00000   0.02865   0.02868   2.07469
   A34        1.85366   0.00688   0.00000   0.03948   0.03948   1.89314
   A35        2.05984   0.00142   0.00000   0.00632   0.00634   2.06618
   A36        2.10922  -0.00209   0.00000  -0.00835  -0.00842   2.10081
   A37        2.11410   0.00067   0.00000   0.00197   0.00199   2.11609
   A38        2.08668   0.00004   0.00000   0.00294   0.00285   2.08953
   A39        2.07189  -0.00030   0.00000  -0.00251  -0.00247   2.06942
   A40        2.12374   0.00026   0.00000  -0.00042  -0.00037   2.12337
   A41        2.09567  -0.00022   0.00000   0.00215   0.00207   2.09775
   A42        2.09388  -0.00004   0.00000  -0.00196  -0.00193   2.09194
   A43        2.09359   0.00026   0.00000  -0.00026  -0.00024   2.09335
   A44        2.00551   0.00109   0.00000   0.00412   0.00412   2.00962
   A45        1.95412  -0.00013   0.00000  -0.00065  -0.00065   1.95347
   A46        1.93409   0.00003   0.00000   0.00017   0.00017   1.93426
   A47        1.86208  -0.00015   0.00000  -0.00092  -0.00092   1.86116
   A48        1.90113   0.00011   0.00000   0.00074   0.00074   1.90187
   A49        1.90028   0.00015   0.00000   0.00089   0.00089   1.90117
   A50        1.91134  -0.00001   0.00000  -0.00024  -0.00024   1.91110
    D1       -0.22395  -0.00034   0.00000  -0.01122  -0.01122  -0.23517
    D2        3.04983   0.00010   0.00000   0.00539   0.00538   3.05521
    D3        1.87282  -0.00034   0.00000  -0.01118  -0.01118   1.86165
    D4       -1.13658   0.00011   0.00000   0.00543   0.00542  -1.13116
    D5       -2.30596  -0.00016   0.00000  -0.00917  -0.00916  -2.31511
    D6        0.96783   0.00029   0.00000   0.00744   0.00744   0.97526
    D7       -1.08684  -0.00008   0.00000   0.00075   0.00074  -1.08609
    D8        1.92100  -0.00063   0.00000  -0.01646  -0.01649   1.90451
    D9        3.10467   0.00012   0.00000   0.00296   0.00298   3.10765
   D10       -0.17068  -0.00044   0.00000  -0.01424  -0.01426  -0.18493
   D11        1.01970   0.00039   0.00000   0.00602   0.00605   1.02574
   D12       -2.25565  -0.00016   0.00000  -0.01119  -0.01119  -2.26684
   D13        3.12152   0.00011   0.00000   0.00027   0.00028   3.12179
   D14       -0.02735   0.00008   0.00000  -0.00078  -0.00076  -0.02811
   D15        0.11675   0.00057   0.00000   0.01743   0.01741   0.13417
   D16       -3.03211   0.00053   0.00000   0.01638   0.01637  -3.01574
   D17       -3.13079   0.00043   0.00000   0.01211   0.01225  -3.11854
   D18        0.03725   0.00023   0.00000   0.00397   0.00384   0.04109
   D19        0.00343   0.00037   0.00000   0.01088   0.01101   0.01444
   D20       -3.11172   0.00017   0.00000   0.00274   0.00260  -3.10912
   D21       -0.01014  -0.00004   0.00000   0.00205   0.00189  -0.00826
   D22       -3.13842   0.00070   0.00000   0.02695   0.02740  -3.11102
   D23        3.10521   0.00041   0.00000   0.01158   0.01113   3.11633
   D24       -0.02308   0.00115   0.00000   0.03648   0.03665   0.01357
[...]
 Alpha virt. eigenvalues --    2.21509   2.22451   2.23100   2.25165   2.27080
 Alpha virt. eigenvalues --    2.29136   2.30423   2.31849   2.36805   2.38483
 Alpha virt. eigenvalues --    2.41935   2.43318   2.44589   2.46087   2.50294
 Alpha virt. eigenvalues --    2.51360   2.53147   2.54584   2.55905   2.56811
 Alpha virt. eigenvalues --    2.57970   2.58395   2.59970   2.61792   2.62700
 Alpha virt. eigenvalues --    2.65760   2.66420   2.67938   2.70485   2.71366
 Alpha virt. eigenvalues --    2.72243   2.73418   2.75470   2.77177   2.78374
 Alpha virt. eigenvalues --    2.79765   2.80189   2.80697   2.81779   2.82814
 Alpha virt. eigenvalues --    2.84533   2.86928   2.88389   2.88791   2.90952
 Alpha virt. eigenvalues --    2.91833   2.92604   2.94060   2.95962   2.96751
 Alpha virt. eigenvalues --    2.98231   3.00641   3.01132   3.03015   3.04203
 Alpha virt. eigenvalues --    3.05952   3.07969   3.11160   3.12421   3.14099
 Alpha virt. eigenvalues --    3.15091   3.16277   3.20721   3.21864   3.23692
 Alpha virt. eigenvalues --    3.26029   3.27035   3.30079   3.31443   3.33919
 Alpha virt. eigenvalues --    3.35470   3.36002   3.39575   3.44614   3.49315
 Alpha virt. eigenvalues --    3.51370   3.54277   3.60483   3.61473   3.64978
 Alpha virt. eigenvalues --    3.67233   3.67827   3.69217   3.76256   3.78755
 Alpha virt. eigenvalues --    3.79236   3.84109   3.86375   3.87656   3.90535
 Alpha virt. eigenvalues --    3.92035   3.93365   3.94035   4.01212   4.10322
 Alpha virt. eigenvalues --    4.15855   4.18777   4.21968   4.25072   4.28870
 Alpha virt. eigenvalues --    4.33714   4.38175   4.59962   4.96006   4.98186
 Alpha virt. eigenvalues --    5.13035   5.15799   5.16684   5.23007   5.38039
 Alpha virt. eigenvalues --    5.53111   5.56545   5.84337   5.88848   5.93971
 Alpha virt. eigenvalues --   23.72709  23.91733  24.03591  24.04770  24.06222
 Alpha virt. eigenvalues --   24.06366  24.06829  24.10931  24.18778  24.23663
 Alpha virt. eigenvalues --   24.26340  24.31958  35.67352  50.09473  50.11945
 Alpha virt. eigenvalues --   50.14978
          Condensed to atoms (all electrons):
               1          2          3          4          5          6
     1  C    5.348520   0.385664   0.399003  -0.140740   0.009438   0.275302
     2  H    0.385664   0.517264  -0.031519   0.013765  -0.007953  -0.048277
     3  H    0.399003  -0.031519   0.534544  -0.015999   0.007591  -0.067672
     4  C   -0.140740   0.013765  -0.015999   5.291343   0.400051   0.278405
     5  H    0.009438  -0.007953   0.007591   0.400051   0.553975  -0.036536
     6  N    0.275302  -0.048277  -0.067672   0.278405  -0.036536   6.766595
     7  H    0.403118  -0.022112  -0.045477   0.009640   0.001102  -0.028466
     8  H    0.002993   0.003579   0.000271   0.398703  -0.035833  -0.071573
     9  H   -0.022785   0.004086   0.001178   0.413584  -0.057415  -0.050913
    10  C   -0.407823   0.000074   0.091060  -0.140954  -0.064872   0.126861
    11  H    0.002157  -0.001286  -0.002256  -0.024973   0.004403  -0.063103
    12  C    0.656674   0.020375  -0.102375  -0.175430   0.039310  -0.181824
    13  C   -0.350048  -0.013623   0.049858  -0.009285  -0.000249  -0.022654
    14  H    0.054787   0.004825  -0.027946  -0.016443   0.001090  -0.027827
    15  O    0.001204   0.000316  -0.000682   0.005069  -0.000126   0.009692
    16  C   -0.157325  -0.000393   0.017323   0.064205  -0.002301  -0.014482
    17  C   -0.062537  -0.006303   0.008276   0.003563   0.000485   0.017548
    18  C    0.020162   0.001792  -0.002413  -0.003332  -0.000182  -0.003983
    19  O   -0.005385  -0.000441   0.001178  -0.001761   0.000032  -0.003872
    20  C   -0.006036  -0.001934  -0.002180   0.002098   0.000260   0.006209
    21  C    0.012022   0.001060  -0.002011  -0.000502  -0.000109   0.001127
    22  H   -0.001821  -0.000075   0.000245   0.000420  -0.000071   0.000150
    23  H    0.001458   0.001027   0.000381   0.002304  -0.000026   0.005188
    24  H   -0.000281  -0.000019   0.000033   0.000044   0.000001   0.000048
    25  C   -0.003541  -0.000318   0.000376  -0.000508  -0.000065  -0.000747
    26  H   -0.000116  -0.000009   0.000038   0.000006  -0.000001  -0.000035
    27  O   -0.000033  -0.000001   0.000009  -0.000001  -0.000001   0.000000
    28  C   -0.000026   0.000000   0.000006   0.000014  -0.000001   0.000009
    29  H    0.000003   0.000000   0.000000   0.000000   0.000000   0.000001
    30  H    0.000014   0.000001  -0.000004   0.000000   0.000000   0.000000
    31  H   -0.000004   0.000000   0.000000   0.000000   0.000000   0.000000
               7          8          9         10         11         12
     1  C    0.403118   0.002993  -0.022785  -0.407823   0.002157   0.656674
     2  H   -0.022112   0.003579   0.004086   0.000074  -0.001286   0.020375
     3  H   -0.045477   0.000271   0.001178   0.091060  -0.002256  -0.102375
     4  C    0.009640   0.398703   0.413584  -0.140954  -0.024973  -0.175430
     5  H    0.001102  -0.035833  -0.057415  -0.064872   0.004403   0.039310
     6  N   -0.028466  -0.071573  -0.050913   0.126861  -0.063103  -0.181824
     7  H    0.530899  -0.003981  -0.000547  -0.016627   0.001742   0.034695
     8  H   -0.003981   0.524338  -0.015626   0.065217  -0.004086  -0.046412
     9  H   -0.000547  -0.015626   0.554926   0.013326  -0.000764  -0.002367
    10  C   -0.016627   0.065217   0.013326  11.164690   0.386114  -7.710737
    11  H    0.001742  -0.004086  -0.000764   0.386114   0.457836  -0.050173
    12  C    0.034695  -0.046412  -0.002367  -7.710737  -0.050173  26.735099
    13  C   -0.034281   0.017970   0.003334   1.448552   0.081683  -4.783393
    14  H    0.008109  -0.001647  -0.001087  -0.386624   0.005188   1.059223
    15  O   -0.000345   0.000322   0.000062  -0.017762   0.014347  -0.098324
    16  C   -0.031207   0.009427   0.000853   1.609506   0.001179  -8.778600
    17  C    0.023029  -0.001150   0.000413   0.888212   0.004712  -2.097722
    18  C   -0.009299   0.001520   0.000185  -0.665353  -0.031120   0.903808
    19  O    0.002395   0.000113  -0.000051  -0.024853   0.001484  -0.011524
    20  C    0.005042  -0.000779   0.000180  -0.474487  -0.004941   0.728918
    21  C   -0.000471   0.000478  -0.000090   0.165958  -0.007434   0.216744
    22  H    0.000163   0.000192   0.000020   0.020567  -0.000844  -0.136050
    23  H   -0.004614   0.000148  -0.000086  -0.022574  -0.001869  -0.052933
    24  H    0.000024   0.000002   0.000002  -0.003188  -0.000135  -0.005009
    25  C    0.001553   0.000045   0.000034   0.044626   0.002574   0.053515
    26  H   -0.000018   0.000000   0.000001   0.000943   0.000070  -0.002408
    27  O    0.000004   0.000002   0.000000   0.000449  -0.000038  -0.006852
    28  C    0.000010   0.000000   0.000000   0.002448   0.000005  -0.015562
    29  H   -0.000003   0.000000   0.000000   0.000133  -0.000005  -0.000604
    30  H    0.000001   0.000000   0.000000  -0.000073  -0.000008   0.001783
    31  H    0.000001   0.000000   0.000000  -0.000078   0.000004  -0.000323
              13         14         15         16         17         18
     1  C   -0.350048   0.054787   0.001204  -0.157325  -0.062537   0.020162
     2  H   -0.013623   0.004825   0.000316  -0.000393  -0.006303   0.001792
     3  H    0.049858  -0.027946  -0.000682   0.017323   0.008276  -0.002413
     4  C   -0.009285  -0.016443   0.005069   0.064205   0.003563  -0.003332
     5  H   -0.000249   0.001090  -0.000126  -0.002301   0.000485  -0.000182
     6  N   -0.022654  -0.027827   0.009692  -0.014482   0.017548  -0.003983
     7  H   -0.034281   0.008109  -0.000345  -0.031207   0.023029  -0.009299
     8  H    0.017970  -0.001647   0.000322   0.009427  -0.001150   0.001520
     9  H    0.003334  -0.001087   0.000062   0.000853   0.000413   0.000185
    10  C    1.448552  -0.386624  -0.017762   1.609506   0.888212  -0.665353
    11  H    0.081683   0.005188   0.014347   0.001179   0.004712  -0.031120
    12  C   -4.783393   1.059223  -0.098324  -8.778600  -2.097722   0.903808
    13  C   13.250648  -0.144275   0.658638  -1.539571   1.127380  -3.248170
    14  H   -0.144275   0.599997  -0.000255  -0.181944  -0.257255   0.079726
    15  O    0.658638  -0.000255   8.125347  -0.510961  -0.132973   0.210170
    16  C   -1.539571  -0.181944  -0.510961  21.589870  -2.221784  -0.310300
    17  C    1.127380  -0.257255  -0.132973  -2.221784  19.432266  -5.941034
    18  C   -3.248170   0.079726   0.210170  -0.310300  -5.941034  16.582269
    19  O    0.100872   0.007645  -0.002756  -0.004716   0.412466  -0.017376
    20  C   -1.391161   0.053050   0.052870  -1.175442  -4.214717   4.075645
    21  C    0.849415   0.019922   0.026480  -4.227266   0.172164  -0.907316
    22  H   -0.134849  -0.006757  -0.009457   0.144663   0.142701   0.456073
    23  H   -0.073077  -0.011789  -0.001837  -0.050541   0.063193   0.023086
    24  H   -0.037966  -0.000717   0.000103  -0.083407  -0.105820   0.079506
    25  C    0.946611  -0.006162   0.005859  -0.045985  -0.291300  -4.730709
    26  H    0.012554  -0.000363   0.000346   0.121756  -0.037844  -0.108845
    27  O    0.013883  -0.000550  -0.000192  -0.045580   0.060245  -0.281670
    28  C   -0.020558  -0.000840  -0.001291  -0.030912   0.059095   0.141857
    29  H   -0.003450   0.000005  -0.000090  -0.022567   0.017030  -0.006098
    30  H    0.006217   0.000130  -0.000015  -0.008675  -0.011576   0.042560
    31  H   -0.001791  -0.000029  -0.000005   0.010343  -0.004225  -0.004754
              19         20         21         22         23         24
     1  C   -0.005385  -0.006036   0.012022  -0.001821   0.001458  -0.000281
     2  H   -0.000441  -0.001934   0.001060  -0.000075   0.001027  -0.000019
     3  H    0.001178  -0.002180  -0.002011   0.000245   0.000381   0.000033
     4  C   -0.001761   0.002098  -0.000502   0.000420   0.002304   0.000044
     5  H    0.000032   0.000260  -0.000109  -0.000071  -0.000026   0.000001
     6  N   -0.003872   0.006209   0.001127   0.000150   0.005188   0.000048
     7  H    0.002395   0.005042  -0.000471   0.000163  -0.004614   0.000024
     8  H    0.000113  -0.000779   0.000478   0.000192   0.000148   0.000002
     9  H   -0.000051   0.000180  -0.000090   0.000020  -0.000086   0.000002
    10  C   -0.024853  -0.474487   0.165958   0.020567  -0.022574  -0.003188
    11  H    0.001484  -0.004941  -0.007434  -0.000844  -0.001869  -0.000135
    12  C   -0.011524   0.728918   0.216744  -0.136050  -0.052933  -0.005009
    13  C    0.100872  -1.391161   0.849415  -0.134849  -0.073077  -0.037966
    14  H    0.007645   0.053050   0.019922  -0.006757  -0.011789  -0.000717
    15  O   -0.002756   0.052870   0.026480  -0.009457  -0.001837   0.000103
    16  C   -0.004716  -1.175442  -4.227266   0.144663  -0.050541  -0.083407
    17  C    0.412466  -4.214717   0.172164   0.142701   0.063193  -0.105820
    18  C   -0.017376   4.075645  -0.907316   0.456073   0.023086   0.079506
    19  O    8.022042  -0.393322  -0.031523  -0.000469   0.225883  -0.024955
    20  C   -0.393322  13.252000  -2.434694   0.014046   0.120581   0.504483
    21  C   -0.031523  -2.434694  12.741984  -0.071785   0.021110   0.042469
    22  H   -0.000469   0.014046  -0.071785   0.451016   0.001193   0.003123
    23  H    0.225883   0.120581   0.021110   0.001193   0.452327   0.003200
    24  H   -0.024955   0.504483   0.042469   0.003123   0.003200   0.483493
    25  C   -0.006266  -1.951498   0.064567  -0.132425  -0.016453  -0.074256
    26  H    0.001061  -0.118860  -0.178587  -0.005037  -0.000833  -0.021161
    27  O    0.000373   0.051817   0.026129  -0.019108   0.000181  -0.000487
    28  C   -0.001132  -0.228799   0.209895   0.008673   0.000305   0.005324
    29  H    0.000099   0.008516  -0.039883   0.000329   0.000164   0.000445
    30  H    0.000056   0.039500  -0.058836  -0.001202  -0.000055   0.000798
    31  H   -0.000048  -0.017246   0.067234   0.000609  -0.000033   0.000228
              25         26         27         28         29         30
     1  C   -0.003541  -0.000116  -0.000033  -0.000026   0.000003   0.000014
     2  H   -0.000318  -0.000009  -0.000001   0.000000   0.000000   0.000001
     3  H    0.000376   0.000038   0.000009   0.000006   0.000000  -0.000004
     4  C   -0.000508   0.000006  -0.000001   0.000014   0.000000   0.000000
     5  H   -0.000065  -0.000001  -0.000001  -0.000001   0.000000   0.000000
     6  N   -0.000747  -0.000035   0.000000   0.000009   0.000001   0.000000
     7  H    0.001553  -0.000018   0.000004   0.000010  -0.000003   0.000001
     8  H    0.000045   0.000000   0.000002   0.000000   0.000000   0.000000
     9  H    0.000034   0.000001   0.000000   0.000000   0.000000   0.000000
    10  C    0.044626   0.000943   0.000449   0.002448   0.000133  -0.000073
    11  H    0.002574   0.000070  -0.000038   0.000005  -0.000005  -0.000008
    12  C    0.053515  -0.002408  -0.006852  -0.015562  -0.000604   0.001783
    13  C    0.946611   0.012554   0.013883  -0.020558  -0.003450   0.006217
    14  H   -0.006162  -0.000363  -0.000550  -0.000840   0.000005   0.000130
    15  O    0.005859   0.000346  -0.000192  -0.001291  -0.000090  -0.000015
    16  C   -0.045985   0.121756  -0.045580  -0.030912  -0.022567  -0.008675
    17  C   -0.291300  -0.037844   0.060245   0.059095   0.017030  -0.011576
    18  C   -4.730709  -0.108845  -0.281670   0.141857  -0.006098   0.042560
    19  O   -0.006266   0.001061   0.000373  -0.001132   0.000099   0.000056
    20  C   -1.951498  -0.118860   0.051817  -0.228799   0.008516   0.039500
    21  C    0.064567  -0.178587   0.026129   0.209895  -0.039883  -0.058836
    22  H   -0.132425  -0.005037  -0.019108   0.008673   0.000329  -0.001202
    23  H   -0.016453  -0.000833   0.000181   0.000305   0.000164  -0.000055
    24  H   -0.074256  -0.021161  -0.000487   0.005324   0.000445   0.000798
    25  C   11.300657   0.658789   0.119367  -0.375373   0.020038  -0.026226
    26  H    0.658789   0.523837  -0.017470  -0.014449  -0.010934  -0.009215
    27  O    0.119367  -0.017470   8.190475   0.183968  -0.032580  -0.031631
    28  C   -0.375373  -0.014449   0.183968   5.252515   0.408537   0.397565
    29  H    0.020038  -0.010934  -0.032580   0.408537   0.588013  -0.069143
    30  H   -0.026226  -0.009215  -0.031631   0.397565  -0.069143   0.589126
    31  H   -0.004797   0.003162  -0.076204   0.399802  -0.022242  -0.023975
              31
     1  C   -0.000004
     2  H    0.000000
     3  H    0.000000
     4  C    0.000000
     5  H    0.000000
     6  N    0.000000
     7  H    0.000001
     8  H    0.000000
     9  H    0.000000
    10  C   -0.000078
    11  H    0.000004
    12  C   -0.000323
    13  C   -0.001791
    14  H   -0.000029
    15  O   -0.000005
    16  C    0.010343
    17  C   -0.004225
    18  C   -0.004754
    19  O   -0.000048
    20  C   -0.017246
    21  C    0.067234
    22  H    0.000609
    23  H   -0.000033
    24  H    0.000228
    25  C   -0.004797
    26  H    0.003162
    27  O   -0.076204
    28  C    0.399802
    29  H   -0.022242
    30  H   -0.023975
    31  H    0.469199
 Mulliken charges:
               1
     1  C   -0.414015
     2  H    0.180437
     3  H    0.189163
     4  C   -0.353288
     5  H    0.188001
     6  N    0.134829
     7  H    0.175923
     8  H    0.155767
     9  H    0.159547
    10  C   -0.092732
    11  H    0.229539
    12  C   -0.191523
    13  C   -0.759214
    14  H    0.178816
    15  O   -0.333754
    16  C    1.874835
    17  C   -1.046537
    18  C   -0.346405
    19  O   -0.245249
    20  C   -0.499118
    21  C   -0.678250
    22  H    0.275770
    23  H    0.314992
    24  H    0.234075
    25  C    0.448019
    26  H    0.203624
    27  O   -0.134505
    28  C   -0.381087
    29  H    0.164287
    30  H    0.162881
    31  H    0.205172
 Sum of Mulliken charges =   0.00000
 Mulliken charges with hydrogens summed into heavy atoms:
               1
     1  C    0.131508
     4  C    0.150027
     6  N    0.134829
    10  C    0.136807
    12  C   -0.012707
    13  C   -0.759214
    15  O   -0.333754
    16  C    1.874835
    17  C   -1.046537
    18  C   -0.070635
    19  O    0.069743
    20  C   -0.265043
    21  C   -0.678250
    25  C    0.651642
    27  O   -0.134505
    28  C    0.151253
 Electronic spatial extent (au):  <R**2>=           5498.7193
 Charge=              0.0000 electrons
 Dipole moment (field-independent basis, Debye):
    X=              3.5732    Y=              2.1629    Z=             -2.3594  Tot=              4.7972
 Quadrupole moment (field-independent basis, Debye-Ang):
   XX=            -49.5038   YY=           -102.2906   ZZ=            -98.3792
   XY=             -3.0578   XZ=             -1.5279   YZ=              2.1929
 Traceless Quadrupole moment (field-independent basis, Debye-Ang):
   XX=             33.8874   YY=            -18.8994   ZZ=            -14.9880
   XY=             -3.0578   XZ=             -1.5279   YZ=              2.1929
 Octapole moment (field-independent basis, Debye-Ang**2):
  XXX=             48.2870  YYY=             -0.6248  ZZZ=             -1.7997  XYY=              8.2818
  XXY=             -7.4967  XXZ=            -30.4226  XZZ=              7.2964  YZZ=              2.7727
  YYZ=             -8.7418  XYZ=             -3.1525
 Hexadecapole moment (field-independent basis, Debye-Ang**3):
 XXXX=          -4679.6104 YYYY=           -968.7477 ZZZZ=           -275.2451 XXXY=            -33.7540
 XXXZ=              1.1535 YYYX=             -0.6896 YYYZ=              7.5540 ZZZX=              3.1630
 ZZZY=              8.2516 XXYY=          -1090.7939 XXZZ=          -1061.1661 YYZZ=           -213.2726
 XXYZ=            -16.4582 YYXZ=              3.3334 ZZXY=             13.7088
 N-N= 1.050987990944D+03 E-N=-3.844688860918D+03  KE= 7.435763531447D+02
 1\1\GINC-NXV33\FOpt\RwB97XD TD-FC\6-311++G(d,p)\C12H15N1O3\CA12053\27-
 Jul-2017\0\\# wb97xd 6-311++g** opt td=(nstates=1,root=1)\\Geom Opt s1
 \\0,1\C,0.6912765858,-4.4389709387,6.8304671544\H,1.6280103723,-4.8851
 830251,6.494841704\H,0.6423048962,-4.5077234536,7.9277733073\C,1.87652
 27579,-2.3482952522,6.3045620778\H,2.2967755905,-2.1613381154,7.303378
 9279\N,0.6224110449,-3.0726047329,6.3649177567\H,-0.1312239964,-5.0241
 580712,6.411453489\H,1.7212477846,-1.3870614992,5.8120586322\H,2.60465
 46405,-2.9156521047,5.7206480734\C,-0.5214423604,-2.3543653938,6.58267
 48494\H,-0.4627279812,-1.3159742058,6.277514437\C,-1.6953026662,-2.850
 1377957,7.0984636009\C,-2.8395421396,-2.0416257861,7.2895218749\H,-1.7
 663825838,-3.8688629413,7.4573451843\O,-2.7436248515,-0.7532934873,7.0
 751131377\C,-4.1243684634,-2.489501821,7.8193617574\C,-4.6599911228,-3
 .7603047712,7.501589519\C,-4.8729064126,-1.6262190974,8.630143329\O,-4
 .0509167967,-4.6306830299,6.6476763429\C,-5.8618132681,-4.1467976356,8
 .0609486652\C,-6.0885890648,-2.0250556893,9.1744975162\H,-4.4900537289
 ,-0.6449872921,8.8786643046\H,-3.3939445005,-4.1535759232,6.1305242965
 \H,-6.2534997341,-5.1246910687,7.8071362854\C,-6.5800643501,-3.2976643
 557,8.9019890836\H,-7.5190975963,-3.6423375466,9.3139031234\O,-6.71095
 25401,-1.1068040445,9.9638241562\C,-7.9491079051,-1.4570932331,10.5364
 444432\H,-8.7011109826,-1.6728724506,9.768318952\H,-7.8537083073,-2.32
 19974997,11.2036979868\H,-8.2682393793,-0.5923979154,11.1162492749\\Ve
 rsion=ES64L-G09RevD.01\State=1-A\HF=-746.6420992\RMSD=5.313e-09\RMSF=9
 .005e-06\Dipole=0.9718366,-0.5732495,0.0842538\PG=C01 [X(C12H15N1O3)]\
 \@


 ALL PAPERS THAT YOU SAVE WILL NEVER BE NEEDED UNTIL
 SUCH TIME AS THEY ARE DISPOSED OF, WHEN THEY BECOME
 ESSENTIAL.

           -- JOHN CORCORAN IN
              PAUL DICKSON'S "THE OFFICIAL RULES"
 Job cpu time:       2 days 11 hours  1 minutes 50.9 seconds.
 File lengths (MBytes):  RWF=    206 Int=      0 D2E=      0 Chk=     29 Scr=      1
 Normal termination of Gaussian 09 at Thu Jul 27 06:41:23 2017.
