 Entering Gaussian System, Link 0=g09
 Input=5_opts1_DCM_plan.com
 Output=5_opts1_DCM_plan.out
 Initial command:
 /share/apps/gaussian/g09_D01/g09/l1.exe "/tmp/4045674.1.chemistry.q/Gau-8874.inp" -scrdir="/tmp/4045674.1.chemistry.q/"
 Entering Link 1 = /share/apps/gaussian/g09_D01/g09/l1.exe PID=      8875.
  
 Copyright (c) 1988,1990,1992,1993,1995,1998,2003,2009,2013,
            Gaussian, Inc.  All Rights Reserved.
  
 This is part of the Gaussian(R) 09 program.  It is based on
 the Gaussian(R) 03 system (copyright 2003, Gaussian, Inc.),
 the Gaussian(R) 98 system (copyright 1998, Gaussian, Inc.),
 the Gaussian(R) 94 system (copyright 1995, Gaussian, Inc.),
 the Gaussian 92(TM) system (copyright 1992, Gaussian, Inc.),
 the Gaussian 90(TM) system (copyright 1990, Gaussian, Inc.),
 the Gaussian 88(TM) system (copyright 1988, Gaussian, Inc.),
 the Gaussian 86(TM) system (copyright 1986, Carnegie Mellon
 University), and the Gaussian 82(TM) system (copyright 1983,
 Carnegie Mellon University). Gaussian is a federally registered
 trademark of Gaussian, Inc.
  
 This software contains proprietary and confidential information,
 including trade secrets, belonging to Gaussian, Inc.
  
 This software is provided under written license and may be
 used, copied, transmitted, or stored only in accord with that
 written license.
  
 The following legend is applicable only to US Government
 contracts under FAR:
  
                    RESTRICTED RIGHTS LEGEND
  
 Use, reproduction and disclosure by the US Government is
 subject to restrictions as set forth in subparagraphs (a)
 and (c) of the Commercial Computer Software - Restricted
 Rights clause in FAR 52.227-19.
  
 Gaussian, Inc.
 340 Quinnipiac St., Bldg. 40, Wallingford CT 06492
  
  
 ---------------------------------------------------------------
 Warning -- This program may not be used in any manner that
 competes with the business of Gaussian, Inc. or will provide
 assistance to any competitor of Gaussian, Inc.  The licensee
 of this program is prohibited from giving any competitor of
 Gaussian, Inc. access to this program.  By using this program,
 the user acknowledges that Gaussian, Inc. is engaged in the
 business of creating and licensing software in the field of
 computational chemistry and represents and warrants to the
 licensee that it is not a competitor of Gaussian, Inc. and that
 it will not use this program in any manner prohibited above.
 ---------------------------------------------------------------
  

 Cite this work as:
 Gaussian 09, Revision D.01,
 M. J. Frisch, G. W. Trucks, H. B. Schlegel, G. E. Scuseria, 
 M. A. Robb, J. R. Cheeseman, G. Scalmani, V. Barone, B. Mennucci, 
 G. A. Petersson, H. Nakatsuji, M. Caricato, X. Li, H. P. Hratchian, 
 A. F. Izmaylov, J. Bloino, G. Zheng, J. L. Sonnenberg, M. Hada, 
 M. Ehara, K. Toyota, R. Fukuda, J. Hasegawa, M. Ishida, T. Nakajima, 
 Y. Honda, O. Kitao, H. Nakai, T. Vreven, J. A. Montgomery, Jr., 
 J. E. Peralta, F. Ogliaro, M. Bearpark, J. J. Heyd, E. Brothers, 
 K. N. Kudin, V. N. Staroverov, T. Keith, R. Kobayashi, J. Normand, 
 K. Raghavachari, A. Rendell, J. C. Burant, S. S. Iyengar, J. Tomasi, 
 M. Cossi, N. Rega, J. M. Millam, M. Klene, J. E. Knox, J. B. Cross, 
 V. Bakken, C. Adamo, J. Jaramillo, R. Gomperts, R. E. Stratmann, 
 O. Yazyev, A. J. Austin, R. Cammi, C. Pomelli, J. W. Ochterski, 
 R. L. Martin, K. Morokuma, V. G. Zakrzewski, G. A. Voth, 
 P. Salvador, J. J. Dannenberg, S. Dapprich, A. D. Daniels, 
 O. Farkas, J. B. Foresman, J. V. Ortiz, J. Cioslowski, 
 and D. J. Fox, Gaussian, Inc., Wallingford CT, 2013.
 
 ******************************************
 Gaussian 09:  ES64L-G09RevD.01 24-Apr-2013
                 8-Sep-2017 
 ******************************************
 %chk=5_opts1_DCM_plan.chk
 %mem=14GB
 %nproc=2
 Will use up to    2 processors via shared memory.
 ----------------------------------------------------------------------
 # wb97xd 6-311++g** opt td=(nstates=1,root=1) SCRF=(PCM,solvent=dichlo
 romethane)
 ----------------------------------------------------------------------
 1/14=-1,18=20,19=15,26=3,38=1/1,3;
 2/9=110,12=2,17=6,18=5,40=1/2;
 3/5=4,6=6,7=1111,11=9,16=1,25=1,30=1,70=2201,71=1,72=9,74=-58/1,2,8,3;
 4//1;
 5/5=2,38=5,53=9/2;
 8/6=1,10=2,107=1,108=1/1;
 9/8=1,15=2,41=1,42=1,70=2/14;
 10/5=4/2;
 6/7=2,8=2,9=2,10=2/1;
 7/12=6,13=5,14=1/1,2,3,16;
 1/14=-1,18=20,19=15,26=3/3(2);
 2/9=110/2;
 99//99;
 2/9=110/2;
 3/5=4,6=6,7=1111,11=9,16=1,25=1,30=1,70=2205,71=1,72=9,74=-58/1,2,8,3;
 4/5=5,16=3,69=1/1;
 5/5=2,38=5,53=9/2;
 8/6=1,10=2,107=1,108=1/1;
 9/8=1,15=2,41=1,42=1,49=4,70=2/14;
 10/5=4/2;
 7/12=6,13=5,14=1/1,2,3,16;
 1/14=-1,18=20,19=15,26=3/3(-8);
 2/9=110/2;
 6/7=2,8=2,9=2,10=2/1;
 99//99;
 -----------
 Geom Opt s1
 -----------
 Symbolic Z-matrix:
 Charge =  0 Multiplicity = 1
 C                    -0.0111    0.34596   8.52248 
 H                     0.90148   0.89256   8.75295 
 H                    -0.85954   1.03419   8.58348 
 C                     1.29356   0.0893    6.4202 
 H                     1.37803   1.16814   6.2642 
 N                     0.09793  -0.21912   7.18827 
 H                    -0.14434  -0.4451    9.26594 
 H                     1.24466  -0.40298   5.44998 
 H                     2.18367  -0.2618    6.94853 
 C                    -0.87912  -0.96965   6.68833 
 H                    -0.71341  -1.34559   5.68344 
 C                    -2.05184  -1.30762   7.3164 
 C                    -3.00203  -2.12694   6.62278 
 H                    -2.26332  -0.95092   8.31228 
 O                    -2.80894  -2.51      5.44605 
 C                    -4.27043  -2.53654   7.29965 
 C                    -5.26234  -3.22419   6.56381 
 C                    -4.5148   -2.26636   8.64995 
 O                    -5.10925  -3.54507   5.26434 
 C                    -6.45046  -3.59031   7.19122 
 C                    -5.69568  -2.64375   9.2707 
 H                    -3.77639  -1.75952   9.25714 
 H                    -4.19962  -3.24265   5.02437 
 H                    -7.20258  -4.1116    6.61063 
 C                    -6.67454  -3.30737   8.5296 
 H                    -7.61012  -3.61192   8.98048 
 O                    -5.80948  -2.32817   10.59291 
 C                    -6.99112  -2.71925   11.26624 
 H                    -7.87518  -2.23993   10.83261 
 H                    -7.11916  -3.8068    11.24651 
 H                    -6.87496  -2.39119   12.29746 
 

 GradGradGradGradGradGradGradGradGradGradGradGradGradGradGradGradGradGrad
 Berny optimization.
 Initialization pass.
                           ----------------------------
                           !    Initial Parameters    !
                           ! (Angstroms and Degrees)  !
 --------------------------                            --------------------------
 ! Name  Definition              Value          Derivative Info.                !
 --------------------------------------------------------------------------------
 ! R1    R(1,2)                  1.0884         estimate D2E/DX2                !
 ! R2    R(1,3)                  1.0942         estimate D2E/DX2                !
 ! R3    R(1,6)                  1.453          estimate D2E/DX2                !
 ! R4    R(1,7)                  1.0937         estimate D2E/DX2                !
 ! R5    R(4,5)                  1.0933         estimate D2E/DX2                !
 ! R6    R(4,6)                  1.4542         estimate D2E/DX2                !
 ! R7    R(4,8)                  1.0891         estimate D2E/DX2                !
 ! R8    R(4,9)                  1.093          estimate D2E/DX2                !
 ! R9    R(6,10)                 1.3296         estimate D2E/DX2                !
 ! R10   R(10,11)                1.0856         estimate D2E/DX2                !
 ! R11   R(10,12)                1.3726         estimate D2E/DX2                !
 ! R12   R(12,13)                1.4336         estimate D2E/DX2                !
 ! R13   R(12,14)                1.0788         estimate D2E/DX2                !
 ! R14   R(13,15)                1.2525         estimate D2E/DX2                !
 ! R15   R(13,16)                1.4949         estimate D2E/DX2                !
 ! R16   R(16,17)                1.4136         estimate D2E/DX2                !
 ! R17   R(16,18)                1.3986         estimate D2E/DX2                !
 ! R18   R(17,19)                1.3472         estimate D2E/DX2                !
 ! R19   R(17,20)                1.3926         estimate D2E/DX2                !
 ! R20   R(18,21)                1.3864         estimate D2E/DX2                !
 ! R21   R(18,22)                1.082          estimate D2E/DX2                !
 ! R22   R(19,23)                0.9882         estimate D2E/DX2                !
 ! R23   R(20,24)                1.0837         estimate D2E/DX2                !
 ! R24   R(20,25)                1.3862         estimate D2E/DX2                !
 ! R25   R(21,25)                1.3956         estimate D2E/DX2                !
 ! R26   R(21,27)                1.3641         estimate D2E/DX2                !
 ! R27   R(25,26)                1.0823         estimate D2E/DX2                !
 ! R28   R(27,28)                1.4151         estimate D2E/DX2                !
 ! R29   R(28,29)                1.0951         estimate D2E/DX2                !
 ! R30   R(28,30)                1.0952         estimate D2E/DX2                !
 ! R31   R(28,31)                1.0884         estimate D2E/DX2                !
 ! A1    A(2,1,3)              108.8113         estimate D2E/DX2                !
 ! A2    A(2,1,6)              109.0753         estimate D2E/DX2                !
 ! A3    A(2,1,7)              108.7487         estimate D2E/DX2                !
 ! A4    A(3,1,6)              110.7314         estimate D2E/DX2                !
 ! A5    A(3,1,7)              108.8184         estimate D2E/DX2                !
 ! A6    A(6,1,7)              110.6113         estimate D2E/DX2                !
 ! A7    A(5,4,6)              110.3751         estimate D2E/DX2                !
 ! A8    A(5,4,8)              108.8075         estimate D2E/DX2                !
 ! A9    A(5,4,9)              108.8449         estimate D2E/DX2                !
 ! A10   A(6,4,8)              109.7408         estimate D2E/DX2                !
 ! A11   A(6,4,9)              110.2509         estimate D2E/DX2                !
 ! A12   A(8,4,9)              108.7838         estimate D2E/DX2                !
 ! A13   A(1,6,4)              117.6592         estimate D2E/DX2                !
 ! A14   A(1,6,10)             120.6397         estimate D2E/DX2                !
 ! A15   A(4,6,10)             121.6891         estimate D2E/DX2                !
 ! A16   A(6,10,11)            115.5531         estimate D2E/DX2                !
 ! A17   A(6,10,12)            126.4965         estimate D2E/DX2                !
 ! A18   A(11,10,12)           117.9501         estimate D2E/DX2                !
 ! A19   A(10,12,13)           119.0526         estimate D2E/DX2                !
 ! A20   A(10,12,14)           120.5646         estimate D2E/DX2                !
 ! A21   A(13,12,14)           120.377          estimate D2E/DX2                !
 ! A22   A(12,13,15)           121.8145         estimate D2E/DX2                !
 ! A23   A(12,13,16)           119.9925         estimate D2E/DX2                !
 ! A24   A(15,13,16)           118.1906         estimate D2E/DX2                !
 ! A25   A(13,16,17)           119.536          estimate D2E/DX2                !
 ! A26   A(13,16,18)           122.1725         estimate D2E/DX2                !
 ! A27   A(17,16,18)           118.2912         estimate D2E/DX2                !
 ! A28   A(16,17,19)           122.5631         estimate D2E/DX2                !
 ! A29   A(16,17,20)           119.4748         estimate D2E/DX2                !
 ! A30   A(19,17,20)           117.962          estimate D2E/DX2                !
 ! A31   A(16,18,21)           121.9046         estimate D2E/DX2                !
 ! A32   A(16,18,22)           120.8663         estimate D2E/DX2                !
 ! A33   A(21,18,22)           117.2257         estimate D2E/DX2                !
 ! A34   A(17,19,23)           105.423          estimate D2E/DX2                !
 ! A35   A(17,20,24)           118.5027         estimate D2E/DX2                !
 ! A36   A(17,20,25)           121.2817         estimate D2E/DX2                !
 ! A37   A(24,20,25)           120.2145         estimate D2E/DX2                !
 ! A38   A(18,21,25)           119.2792         estimate D2E/DX2                !
 ! A39   A(18,21,27)           116.2359         estimate D2E/DX2                !
 ! A40   A(25,21,27)           124.4849         estimate D2E/DX2                !
 ! A41   A(20,25,21)           119.7602         estimate D2E/DX2                !
 ! A42   A(20,25,26)           118.9817         estimate D2E/DX2                !
 ! A43   A(21,25,26)           121.2576         estimate D2E/DX2                !
 ! A44   A(21,27,28)           117.8353         estimate D2E/DX2                !
 ! A45   A(27,28,29)           111.389          estimate D2E/DX2                !
 ! A46   A(27,28,30)           111.3128         estimate D2E/DX2                !
 ! A47   A(27,28,31)           106.1656         estimate D2E/DX2                !
 ! A48   A(29,28,30)           109.4569         estimate D2E/DX2                !
 ! A49   A(29,28,31)           109.2324         estimate D2E/DX2                !
 ! A50   A(30,28,31)           109.1995         estimate D2E/DX2                !
 ! D1    D(2,1,6,4)             -3.2426         estimate D2E/DX2                !
 ! D2    D(2,1,6,10)           177.9962         estimate D2E/DX2                !
 ! D3    D(3,1,6,4)            116.4727         estimate D2E/DX2                !
 ! D4    D(3,1,6,10)           -62.2884         estimate D2E/DX2                !
 ! D5    D(7,1,6,4)           -122.8073         estimate D2E/DX2                !
 ! D6    D(7,1,6,10)            58.4316         estimate D2E/DX2                !
 ! D7    D(5,4,6,1)            -60.5242         estimate D2E/DX2                !
 ! D8    D(5,4,6,10)           118.2231         estimate D2E/DX2                !
 ! D9    D(8,4,6,1)            179.5644         estimate D2E/DX2                !
 ! D10   D(8,4,6,10)            -1.6883         estimate D2E/DX2                !
 ! D11   D(9,4,6,1)             59.7601         estimate D2E/DX2                !
 ! D12   D(9,4,6,10)          -121.4925         estimate D2E/DX2                !
 ! D13   D(1,6,10,11)          179.7411         estimate D2E/DX2                !
 ! D14   D(1,6,10,12)           -0.4416         estimate D2E/DX2                !
 ! D15   D(4,6,10,11)            1.0307         estimate D2E/DX2                !
 ! D16   D(4,6,10,12)         -179.152          estimate D2E/DX2                !
 ! D17   D(6,10,12,13)         179.7891         estimate D2E/DX2                !
 ! D18   D(6,10,12,14)           0.6626         estimate D2E/DX2                !
 ! D19   D(11,10,12,13)         -0.3975         estimate D2E/DX2                !
 ! D20   D(11,10,12,14)       -179.524          estimate D2E/DX2                !
 ! D21   D(10,12,13,15)         -2.1265         estimate D2E/DX2                !
 ! D22   D(10,12,13,16)        178.4417         estimate D2E/DX2                !
 ! D23   D(14,12,13,15)        177.0016         estimate D2E/DX2                !
 ! D24   D(14,12,13,16)         -2.4301         estimate D2E/DX2                !
 ! D25   D(12,13,16,17)        173.3851         estimate D2E/DX2                !
 ! D26   D(12,13,16,18)         -6.8301         estimate D2E/DX2                !
 ! D27   D(15,13,16,17)         -6.067          estimate D2E/DX2                !
 ! D28   D(15,13,16,18)        173.7177         estimate D2E/DX2                !
 ! D29   D(13,16,17,19)          0.7377         estimate D2E/DX2                !
 ! D30   D(13,16,17,20)       -179.1967         estimate D2E/DX2                !
 ! D31   D(18,16,17,19)       -179.0554         estimate D2E/DX2                !
 ! D32   D(18,16,17,20)          1.0102         estimate D2E/DX2                !
 ! D33   D(13,16,18,21)        179.7171         estimate D2E/DX2                !
 ! D34   D(13,16,18,22)         -0.9776         estimate D2E/DX2                !
 ! D35   D(17,16,18,21)         -0.4956         estimate D2E/DX2                !
 ! D36   D(17,16,18,22)        178.8097         estimate D2E/DX2                !
 ! D37   D(16,17,19,23)          2.7185         estimate D2E/DX2                !
 ! D38   D(20,17,19,23)       -177.3461         estimate D2E/DX2                !
 ! D39   D(16,17,20,24)        179.6331         estimate D2E/DX2                !
 ! D40   D(16,17,20,25)         -0.7599         estimate D2E/DX2                !
 ! D41   D(19,17,20,24)         -0.3043         estimate D2E/DX2                !
 ! D42   D(19,17,20,25)        179.3027         estimate D2E/DX2                !
 ! D43   D(16,18,21,25)         -0.2934         estimate D2E/DX2                !
 ! D44   D(16,18,21,27)        179.6763         estimate D2E/DX2                !
 ! D45   D(22,18,21,25)       -179.6227         estimate D2E/DX2                !
 ! D46   D(22,18,21,27)          0.347          estimate D2E/DX2                !
 ! D47   D(17,20,25,21)         -0.0396         estimate D2E/DX2                !
 ! D48   D(17,20,25,26)       -179.7983         estimate D2E/DX2                !
 ! D49   D(24,20,25,21)        179.5607         estimate D2E/DX2                !
 ! D50   D(24,20,25,26)         -0.198          estimate D2E/DX2                !
 ! D51   D(18,21,25,20)          0.5666         estimate D2E/DX2                !
 ! D52   D(18,21,25,26)       -179.6803         estimate D2E/DX2                !
 ! D53   D(27,21,25,20)       -179.4005         estimate D2E/DX2                !
 ! D54   D(27,21,25,26)          0.3526         estimate D2E/DX2                !
 ! D55   D(18,21,27,28)       -178.8733         estimate D2E/DX2                !
 ! D56   D(25,21,27,28)          1.0946         estimate D2E/DX2                !
 ! D57   D(21,27,28,29)        -62.0843         estimate D2E/DX2                !
 ! D58   D(21,27,28,30)         60.3822         estimate D2E/DX2                !
 ! D59   D(21,27,28,31)        179.1084         estimate D2E/DX2                !
 --------------------------------------------------------------------------------
 Trust Radius=3.00D-01 FncErr=1.00D-07 GrdErr=1.00D-06
 Number of steps in this run=    150 maximum allowed number of steps=    186.
 GradGradGradGradGradGradGradGradGradGradGradGradGradGradGradGradGradGrad

                          Input orientation:                          
 ---------------------------------------------------------------------
 Center     Atomic      Atomic             Coordinates (Angstroms)
 Number     Number       Type             X           Y           Z
 ---------------------------------------------------------------------
      1          6           0       -0.011101    0.345959    8.522477
      2          1           0        0.901479    0.892556    8.752945
      3          1           0       -0.859539    1.034193    8.583477
      4          6           0        1.293559    0.089298    6.420195
      5          1           0        1.378026    1.168143    6.264201
      6          7           0        0.097931   -0.219119    7.188271
      7          1           0       -0.144340   -0.445099    9.265944
      8          1           0        1.244658   -0.402977    5.449977
      9          1           0        2.183672   -0.261795    6.948534
     10          6           0       -0.879122   -0.969653    6.688327
     11          1           0       -0.713414   -1.345592    5.683442
     12          6           0       -2.051837   -1.307619    7.316398
     13          6           0       -3.002028   -2.126943    6.622776
     14          1           0       -2.263323   -0.950918    8.312285
     15          8           0       -2.808935   -2.509999    5.446052
     16          6           0       -4.270433   -2.536544    7.299647
     17          6           0       -5.262340   -3.224187    6.563810
     18          6           0       -4.514798   -2.266362    8.649948
     19          8           0       -5.109252   -3.545074    5.264339
     20          6           0       -6.450461   -3.590311    7.191216
     21          6           0       -5.695675   -2.643746    9.270697
     22          1           0       -3.776390   -1.759516    9.257139
     23          1           0       -4.199619   -3.242649    5.024365
     24          1           0       -7.202577   -4.111599    6.610629
     25          6           0       -6.674542   -3.307373    8.529599
     26          1           0       -7.610124   -3.611924    8.980478
     27          8           0       -5.809482   -2.328171   10.592908
     28          6           0       -6.991117   -2.719249   11.266243
     29          1           0       -7.875176   -2.239927   10.832606
     30          1           0       -7.119157   -3.806798   11.246508
     31          1           0       -6.874961   -2.391190   12.297464
 ---------------------------------------------------------------------
                    Distance matrix (angstroms):
                    1          2          3          4          5
     1  C    0.000000
     2  H    1.088433   0.000000
     3  H    1.094182   1.774814   0.000000
     4  C    2.487489   2.498134   3.195066   0.000000
     5  H    2.775873   2.548900   3.225474   1.093332   0.000000
     6  N    1.453034   2.080797   2.105740   1.454162   2.101677
     7  H    1.093741   1.773760   1.779206   3.232866   3.732373
     8  H    3.402660   3.564516   4.038802   1.089059   1.774589
     9  H    2.768337   2.496486   3.689682   1.093028   1.778229
    10  C    2.418347   3.301668   2.758147   2.431834   3.137638
    11  H    3.378566   4.127837   3.754322   2.574812   3.321184
    12  C    2.890251   3.953038   2.917387   3.734465   4.358954
    13  C    4.320851   5.375161   4.292713   4.837854   5.492817
    14  H    2.607408   3.688977   2.446389   4.160945   4.684495
    15  O    5.044677   6.023296   5.119070   4.953358   5.632827
    16  C    5.286402   6.373341   5.102213   6.215021   6.833882
    17  C    6.645136   7.728684   6.449613   7.347082   7.967232
    18  C    5.208047   6.270999   4.925343   6.652664   7.225856
    19  O    7.193521   8.245715   7.074350   7.452560   8.080774
    20  C    7.663670   8.751349   7.388020   8.608359   9.208010
    21  C    6.466262   7.503062   6.114550   8.027720   8.579438
    22  H    4.376089   5.400940   4.094710   6.096782   6.640547
    23  H    6.531353   7.551386   6.489591   6.574589   7.218199
    24  H    8.674233   9.762521   8.402704   9.479880  10.080795
    25  C    7.599232   8.665182   7.257159   8.915021   9.487156
    26  H    8.580195   9.632731   8.204536   9.976455  10.536320
    27  O    6.712591   7.667825   6.312309   8.585388   9.089675
    28  C    8.102122   9.036309   7.673448  10.000399  10.496418
    29  H    8.594602   9.548147   8.062109  10.438408  10.867705
    30  H    8.671228   9.624572   8.349236  10.452112  11.035196
    31  H    8.297896   9.155306   7.855714  10.364354  10.825013
                    6          7          8          9         10
     6  N    0.000000
     7  H    2.103922   0.000000
     8  H    2.090563   4.061120   0.000000
     9  H    2.099907   3.289928   1.774078   0.000000
    10  C    1.329616   2.731148   2.522910   3.154279   0.000000
    11  H    2.047372   3.737520   2.185652   3.341883   1.085626
    12  C    2.413038   2.860632   3.894712   4.378197   1.372572
    13  C    3.683656   4.240438   4.730947   5.520542   2.418749
    14  H    2.715595   2.378110   4.560590   4.702177   2.133917
    15  O    4.090639   5.094649   4.568498   5.677852   2.764071
    16  C    4.946258   5.026441   6.195935   6.852243   3.785479
    17  C    6.176803   6.420186   7.179197   8.022897   4.930621
    18  C    5.254043   4.774657   6.847142   7.196013   4.329844
    19  O    6.471340   7.090348   7.090797   8.173321   5.153109
    20  C    7.365214   7.346020   8.509164   9.256682   6.177424
    21  C    6.616735   5.970879   8.233296   8.552791   5.715803
    22  H    4.654396   3.862584   6.445588   6.564691   3.951815
    23  H    5.682707   6.500967   6.155082   7.303035   4.354421
    24  H    8.293521   8.385263   9.298213  10.150706   7.061441
    25  C    7.563258   7.167870   8.979606   9.499646   6.514761
    26  H    8.610299   8.114691  10.058277  10.548488   7.585640
    27  O    7.137029   6.115605   8.939631   9.024516   6.434266
    28  C    8.551907   7.486742  10.345146  10.433525   7.834212
    29  H    8.996404   8.089602  10.747951  10.962639   8.230031
    30  H    9.023696   7.991979  10.730292  10.843535   8.231916
    31  H    8.913079   7.634045  10.805984  10.733322   8.332663
                   11         12         13         14         15
    11  H    0.000000
    12  C    2.111720   0.000000
    13  C    2.594342   1.433620   0.000000
    14  H    3.077142   1.078774   2.187044   0.000000
    15  O    2.409026   2.348853   1.252476   3.308129   0.000000
    16  C    4.084467   2.536278   1.494918   2.751025   2.360613
    17  C    4.999689   3.814047   2.513251   4.149581   2.789022
    18  C    4.909022   2.960358   2.533246   2.629363   3.637895
    19  O    4.933230   4.308705   2.880424   4.911103   2.529003
    20  C    6.342386   4.957242   3.788966   5.074970   4.180118
    21  C    6.275072   4.345351   3.812388   3.945283   4.793648
    22  H    4.724877   2.635293   2.770290   1.958559   4.002946
    23  H    4.023286   3.689271   2.287781   4.451033   1.627451
    24  H    7.114753   5.906821   4.645817   6.105880   4.819279
    25  C    6.890881   5.180760   4.303109   5.005892   5.008691
    26  H    7.973162   6.242879   5.385023   6.009635   6.062823
    27  O    7.144104   5.088904   4.866646   4.435461   5.960409
    28  C    8.512588   6.480005   6.150239   5.848495   7.170011
    29  H    8.865921   6.866163   6.440730   6.285416   7.399642
    30  H    8.833956   6.882543   6.414948   6.351759   7.342002
    31  H    9.099628   7.017668   6.875429   6.262846   7.967969
                   16         17         18         19         20
    16  C    0.000000
    17  C    1.413573   0.000000
    18  C    1.398580   2.414171   0.000000
    19  O    2.421410   1.347230   3.667537   0.000000
    20  C    2.423779   1.392593   2.761799   2.348136   0.000000
    21  C    2.434717   2.802129   1.386441   4.148155   2.406227
    22  H    2.163244   3.406953   1.082044   4.572438   3.843241
    23  H    2.383381   1.870724   3.767934   0.988170   3.143629
    24  H    3.398972   2.134060   3.845501   2.552539   1.083744
    25  C    2.808327   2.421892   2.400559   3.628851   1.386195
    26  H    3.890395   3.391565   3.391287   4.479790   2.132310
    27  O    3.641107   4.163633   2.335620   5.510429   3.684476
    28  C    4.813459   5.035525   3.630738   6.343994   4.202012
    29  H    5.056081   5.100814   4.007098   6.352900   4.136795
    30  H    5.030555   5.070983   3.987199   6.316214   4.115752
    31  H    5.637630   6.014085   4.346300   7.342617   5.262306
                   21         22         23         24         25
    21  C    0.000000
    22  H    2.113221   0.000000
    23  H    4.541828   4.505017   0.000000
    24  H    3.391358   4.926973   3.505576   0.000000
    25  C    1.395639   3.365184   4.291398   2.146636   0.000000
    26  H    2.164881   4.266787   5.236291   2.456004   1.082292
    27  O    1.364105   2.498221   5.868271   4.580379   2.442214
    28  C    2.380352   3.910506   6.857656   4.863959   2.816972
    29  H    2.711615   4.417345   6.946282   4.666973   2.807989
    30  H    2.698670   4.395798   6.896161   4.646637   2.797982
    31  H    3.258193   4.386768   7.796179   5.950398   3.882830
                   26         27         28         29         30
    26  H    0.000000
    27  O    2.736835   0.000000
    28  C    2.530763   1.415127   0.000000
    29  H    2.320131   2.081426   1.095149   0.000000
    30  H    2.326782   2.080572   1.095238   1.788285   0.000000
    31  H    3.610132   2.011151   1.088362   1.780202   1.779912
                   31
    31  H    0.000000
 Stoichiometry    C12H15NO3
 Framework group  C1[X(C12H15NO3)]
 Deg. of freedom    87
 Full point group                 C1      NOp   1
 Largest Abelian subgroup         C1      NOp   1
 Largest concise Abelian subgroup C1      NOp   1
                         Standard orientation:                         
 ---------------------------------------------------------------------
 Center     Atomic      Atomic             Coordinates (Angstroms)
 Number     Number       Type             X           Y           Z
 ---------------------------------------------------------------------
      1          6           0        3.758903   -2.126472    0.165262
      2          1           0        4.699925   -2.673296    0.153161
      3          1           0        3.249945   -2.321052    1.114121
      4          6           0        5.423793   -0.291265   -0.053266
      5          1           0        5.945629   -0.567226    0.867010
      6          7           0        4.031997   -0.707856    0.009525
      7          1           0        3.130672   -2.489735   -0.653050
      8          1           0        5.479090    0.789244   -0.177737
      9          1           0        5.923919   -0.769091   -0.899591
     10          6           0        3.036435    0.171654   -0.047001
     11          1           0        3.334296    1.209501   -0.159855
     12          6           0        1.694492   -0.108921    0.019502
     13          6           0        0.753232    0.969959   -0.053379
     14          1           0        1.351730   -1.124767    0.139184
     15          8           0        1.122497    2.163865   -0.136626
     16          6           0       -0.713918    0.685340   -0.018123
     17          6           0       -1.630602    1.759150    0.051237
     18          6           0       -1.220863   -0.617580   -0.055948
     19          8           0       -1.237765    3.047651    0.073006
     20          6           0       -2.996423    1.491990    0.100992
     21          6           0       -2.582562   -0.875433   -0.017146
     22          1           0       -0.557597   -1.469425   -0.128459
     23          1           0       -0.253671    3.023857   -0.013450
     24          1           0       -3.684881    2.326882    0.160007
     25          6           0       -3.477276    0.192283    0.068172
     26          1           0       -4.546301    0.027544    0.105628
     27          8           0       -2.949367   -2.188331   -0.067468
     28          6           0       -4.332115   -2.489042   -0.054619
     29          1           0       -4.806628   -2.147091    0.871263
     30          1           0       -4.844544   -2.042768   -0.913574
     31          1           0       -4.407063   -3.573042   -0.116731
 ---------------------------------------------------------------------
 Rotational constants (GHZ):      0.8429919      0.2573020      0.1980908
 Standard basis: 6-311++G(d,p) (5D, 7F)
 There are   473 symmetry adapted cartesian basis functions of A   symmetry.
 There are   457 symmetry adapted basis functions of A   symmetry.
   457 basis functions,   711 primitive gaussians,   473 cartesian basis functions
    59 alpha electrons       59 beta electrons
       nuclear repulsion energy      1053.0477490954 Hartrees.
 NAtoms=   31 NActive=   31 NUniq=   31 SFac= 1.00D+00 NAtFMM=   60 NAOKFM=F Big=F
 Integral buffers will be    131072 words long.
 Raffenetti 1 integral format.
 Two-electron integral symmetry is turned on.
 Nuclear repulsion after empirical dispersion term =     1053.0299094284 Hartrees.
 ------------------------------------------------------------------------------
 Polarizable Continuum Model (PCM)
 =================================
 Model                : PCM (using non-symmetric T matrix).
 Atomic radii         : UFF (Universal Force Field).
 Polarization charges : Total charges.
 Charge compensation  : None.
 Solution method      : On-the-fly selection.
 Cavity type          : Scaled VdW (van der Waals Surface) (Alpha=1.100).
 Cavity algorithm     : GePol (No added spheres)
                        Default sphere list used, NSphG=   31.
                        Lebedev-Laikov grids with approx.  5.0 points / Ang**2.
                        Smoothing algorithm: Karplus/York (Gamma=1.0000).
                        Polarization charges: spherical gaussians, with
                                              point-specific exponents (IZeta= 3).
                        Self-potential: point-specific (ISelfS= 7).
                        Self-field    : sphere-specific E.n sum rule (ISelfD= 2).
 1st derivatives      : Analytical E(r).r(x)/FMM algorithm (CHGder, D1EAlg=3).
                        Cavity 1st derivative terms included.
 Solvent              : Dichloromethane, Eps=   8.930000 Eps(inf)=   2.028346
 ------------------------------------------------------------------------------
 One-electron integrals computed using PRISM.
 NBasis=   457 RedAO= T EigKep=  1.27D-06  NBF=   457
 NBsUse=   454 1.00D-06 EigRej=  6.75D-07 NBFU=   454
 ExpMin= 3.60D-02 ExpMax= 8.59D+03 ExpMxC= 1.30D+03 IAcc=3 IRadAn=         5 AccDes= 0.00D+00
 Harris functional with IExCor= 4639 and IRadAn=       5 diagonalized for initial guess.
 HarFok:  IExCor= 4639 AccDes= 0.00D+00 IRadAn=         5 IDoV= 1 UseB2=F ITyADJ=14
 ICtDFT=  3500011 ScaDFX=  1.000000  1.000000  1.000000  1.000000
 FoFCou: FMM=F IPFlag=           0 FMFlag=      100000 FMFlg1=           0
         NFxFlg=           0 DoJE=T BraDBF=F KetDBF=T FulRan=T
         wScrn=  0.000000 ICntrl=     500 IOpCl=  0 I1Cent=   200000004 NGrid=           0
         NMat0=    1 NMatS0=      1 NMatT0=    0 NMatD0=    1 NMtDS0=    0 NMtDT0=    0
 Petite list used in FoFCou.
 Requested convergence on RMS density matrix=1.00D-08 within 128 cycles.
 Requested convergence on MAX density matrix=1.00D-06.
 Requested convergence on             energy=1.00D-06.
 No special actions if energy rises.
 Inv3:  Mode=1 IEnd=    16609827.
 Iteration    1 A*A^-1 deviation from unit magnitude is 6.44D-15 for   1147.
 Iteration    1 A*A^-1 deviation from orthogonality  is 3.17D-15 for   2268    132.
 Iteration    1 A^-1*A deviation from unit magnitude is 5.33D-15 for   2353.
 Iteration    1 A^-1*A deviation from orthogonality  is 3.27D-08 for   1326   1250.
 Iteration    2 A*A^-1 deviation from unit magnitude is 7.99D-15 for   1145.
 Iteration    2 A*A^-1 deviation from orthogonality  is 4.20D-15 for   2350    171.
 Iteration    2 A^-1*A deviation from unit magnitude is 8.88D-16 for    242.
 Iteration    2 A^-1*A deviation from orthogonality  is 7.64D-16 for   2348    152.
 Error on total polarization charges =  0.01418
 SCF Done:  E(RwB97XD) =  -746.682783854     A.U. after   17 cycles
            NFock= 17  Conv=0.62D-08     -V/T= 2.0039
 DoSCS=F DFT=T ScalE2(SS,OS)=  1.000000  1.000000
 ExpMin= 3.60D-02 ExpMax= 8.59D+03 ExpMxC= 1.30D+03 IAcc=3 IRadAn=         5 AccDes= 0.00D+00
 HarFok:  IExCor=  205 AccDes= 0.00D+00 IRadAn=         5 IDoV=-2 UseB2=F ITyADJ=14
 ICtDFT= 12500011 ScaDFX=  1.000000  1.000000  1.000000  1.000000
 Range of M.O.s used for correlation:    17   454
 NBasis=   457 NAE=    59 NBE=    59 NFC=    16 NFV=     0
 NROrb=    438 NOA=    43 NOB=    43 NVA=   395 NVB=   395

 **** Warning!!: The largest alpha MO coefficient is  0.18453417D+03

 Would need an additional         31031300000 words for in-memory AO integral storage.
 NEqPCM:  Using equilibrium solvation (IEInf=0, Eps=   8.9300, EpsInf=   2.0283)
 Orbital symmetries:
       Occupied  (A) (A) (A) (A) (A) (A) (A) (A) (A) (A) (A) (A)
                 (A) (A) (A) (A) (A) (A) (A) (A) (A) (A) (A) (A)
                 (A) (A) (A) (A) (A) (A) (A) (A) (A) (A) (A) (A)
                 (A) (A) (A) (A) (A) (A) (A) (A) (A) (A) (A) (A)
                 (A) (A) (A) (A) (A) (A) (A) (A) (A) (A) (A)
       Virtual   (A) (A) (A) (A) (A) (A) (A) (A) (A) (A) (A) (A)
                 (A) (A) (A) (A) (A) (A) (A) (A) (A) (A) (A) (A)
                 (A) (A) (A) (A) (A) (A) (A) (A) (A) (A) (A) (A)
                 (A) (A) (A) (A) (A) (A) (A) (A) (A) (A) (A) (A)
                 (A) (A) (A) (A) (A) (A) (A) (A) (A) (A) (A) (A)
                 (A) (A) (A) (A) (A) (A) (A) (A) (A) (A) (A) (A)
                 (A) (A) (A) (A) (A) (A) (A) (A) (A) (A) (A) (A)
                 (A) (A) (A) (A) (A) (A) (A) (A) (A) (A) (A) (A)
                 (A) (A) (A) (A) (A) (A) (A) (A) (A) (A) (A) (A)
                 (A) (A) (A) (A) (A) (A) (A) (A) (A) (A) (A) (A)
                 (A) (A) (A) (A) (A) (A) (A) (A) (A) (A) (A) (A)
                 (A) (A) (A) (A) (A) (A) (A) (A) (A) (A) (A) (A)
                 (A) (A) (A) (A) (A) (A) (A) (A) (A) (A) (A) (A)
                 (A) (A) (A) (A) (A) (A) (A) (A) (A) (A) (A) (A)
                 (A) (A) (A) (A) (A) (A) (A) (A) (A) (A) (A) (A)
                 (A) (A) (A) (A) (A) (A) (A) (A) (A) (A) (A) (A)
                 (A) (A) (A) (A) (A) (A) (A) (A) (A) (A) (A) (A)
                 (A) (A) (A) (A) (A) (A) (A) (A) (A) (A) (A) (A)
                 (A) (A) (A) (A) (A) (A) (A) (A) (A) (A) (A) (A)
                 (A) (A) (A) (A) (A) (A) (A) (A) (A) (A) (A) (A)
                 (A) (A) (A) (A) (A) (A) (A) (A) (A) (A) (A) (A)
                 (A) (A) (A) (A) (A) (A) (A) (A) (A) (A) (A) (A)
                 (A) (A) (A) (A) (A) (A) (A) (A) (A) (A) (A) (A)
                 (A) (A) (A) (A) (A) (A) (A) (A) (A) (A) (A) (A)
                 (A) (A) (A) (A) (A) (A) (A) (A) (A) (A) (A) (A)
                 (A) (A) (A) (A) (A) (A) (A) (A) (A) (A) (A) (A)
                 (A) (A) (A) (A) (A) (A) (A) (A) (A) (A) (A) (A)
                 (A) (A) (A) (A) (A) (A) (A) (A) (A) (A) (A) (A)
                 (A) (A) (A) (A) (A) (A) (A) (A) (A) (A) (A) (A)
                 (A) (A) (A) (A) (A) (A) (A) (A) (A) (A) (A) (A)
                 (A) (A) (A) (A) (A) (A) (A) (A) (A) (A) (A) (A)
                 (A) (A) (A) (A) (A) (A) (A) (A) (A) (A) (A) (A)
                 (A) (A) (A) (A) (A) (A) (A) (A) (A) (A) (A)
     8 initial guesses have been made.
 Convergence on wavefunction:    0.000001000000000
 Iteration     1 Dimension     8 NMult     0 NNew      8
 CISAX will form     8 AO SS matrices at one time.
 Iteration     2 Dimension    12 NMult     8 NNew      4
 Iteration     3 Dimension    16 NMult    12 NNew      4
 Iteration     4 Dimension    20 NMult    16 NNew      4
 Iteration     5 Dimension    24 NMult    20 NNew      4
 Iteration     6 Dimension    28 NMult    24 NNew      4
 Iteration     7 Dimension    32 NMult    28 NNew      4
 Iteration     8 Dimension    36 NMult    32 NNew      4
 Iteration     9 Dimension    40 NMult    36 NNew      4
 Iteration    10 Dimension    44 NMult    40 NNew      4
 Iteration    11 Dimension    48 NMult    44 NNew      4
 Iteration    12 Dimension    52 NMult    48 NNew      4
 Iteration    13 Dimension    56 NMult    52 NNew      4
 ***********************************************************************
 Excited states from <AA,BB:AA,BB> singles matrix:
 ***********************************************************************
 
 Ground to excited state transition densities written to RWF  633
 Ground to excited state transition electric dipole moments (Au):
       state          X           Y           Z        Dip. S.      Osc.
         1         2.4802     -1.0743     -0.0271      7.3063      0.6666
 Ground to excited state transition velocity dipole moments (Au):
       state          X           Y           Z        Dip. S.      Osc.
         1        -0.3385      0.1509      0.0040      0.1374      0.6693
 Ground to excited state transition magnetic dipole moments (Au):
       state          X           Y           Z
         1        -0.0037      0.0470      0.1231
 Ground to excited state transition velocity quadrupole moments (Au):
       state          XX          YY          ZZ          XY          XZ          YZ
         1        -0.5421      0.3366     -0.0231     -0.0785     -0.0428      0.0175
 <0|del|b> * <b|rxdel|0> + <0|del|b> * <b|delr+rdel|0>
 Rotatory Strengths (R) in cgs (10**-40 erg-esu-cm/Gauss)
       state          XX          YY          ZZ    R(velocity)    E-M Angle
         1        35.4681     -9.9916     20.1990     15.2252       79.58
 1/2[<0|r|b>*<b|rxdel|0> + (<0|rxdel|b>*<b|r|0>)*]
 Rotatory Strengths (R) in cgs (10**-40 erg-esu-cm/Gauss)
       state          XX          YY          ZZ     R(length)
         1         6.4963     35.6974      2.3583     14.8507
  1/2[<0|del|b>*<b|r|0> + (<0|r|b>*<b|del|0>)*] (Au)
       state          X           Y           Z        Dip. S.   Osc.(frdel)
         1        -0.8397     -0.1621     -0.0001      1.0019      0.6679

 Excitation energies and oscillator strengths:
 
 Excited State   1:      Singlet-A      3.7238 eV  332.95 nm  f=0.6666  <S**2>=0.000
      58 -> 60         0.11365
      59 -> 60         0.66970
      59 -> 63        -0.10570
 This state for optimization and/or second-order correction.
 Total Energy, E(TD-HF/TD-KS) =  -746.545936790    
 Copying the excited state density for this state as the 1-particle RhoCI density.
 SavETr:  write IOETrn=   770 NScale= 10 NData=  16 NLR=1 NState=    1 LETran=      28.
          IDoAtm=1111111111111111111111111111111
 NEqPCM:  Using equilibrium solvation (IEInf=0, Eps=   8.9300, EpsInf=   2.0283)
          Differentiating once with respect to electric field.
                with respect to dipole field.
          Differentiating once with respect to nuclear coordinates.
          There are     1 degrees of freedom in the 1st order CPHF.  IDoFFX=0 NUNeed=     1.
 LinEq1:  Iter=  0 NonCon=     1 RMS=3.35D-03 Max=2.05D-01 NDo=     1
 AX will form     1 AO Fock derivatives at one time.
 LinEq1:  Iter=  1 NonCon=     1 RMS=1.00D-03 Max=2.88D-02 NDo=     1
 LinEq1:  Iter=  2 NonCon=     1 RMS=7.28D-04 Max=4.64D-02 NDo=     1
 LinEq1:  Iter=  3 NonCon=     1 RMS=2.48D-04 Max=1.02D-02 NDo=     1
 LinEq1:  Iter=  4 NonCon=     1 RMS=1.63D-04 Max=7.21D-03 NDo=     1
 LinEq1:  Iter=  5 NonCon=     1 RMS=7.38D-05 Max=3.01D-03 NDo=     1
 LinEq1:  Iter=  6 NonCon=     1 RMS=3.82D-05 Max=1.46D-03 NDo=     1
 LinEq1:  Iter=  7 NonCon=     1 RMS=1.54D-05 Max=4.70D-04 NDo=     1
 LinEq1:  Iter=  8 NonCon=     1 RMS=6.93D-06 Max=1.73D-04 NDo=     1
 LinEq1:  Iter=  9 NonCon=     1 RMS=3.26D-06 Max=7.37D-05 NDo=     1
 LinEq1:  Iter= 10 NonCon=     1 RMS=1.40D-06 Max=5.35D-05 NDo=     1
 LinEq1:  Iter= 11 NonCon=     1 RMS=6.79D-07 Max=2.36D-05 NDo=     1
 LinEq1:  Iter= 12 NonCon=     1 RMS=2.96D-07 Max=9.83D-06 NDo=     1
 LinEq1:  Iter= 13 NonCon=     1 RMS=1.26D-07 Max=3.14D-06 NDo=     1
 LinEq1:  Iter= 14 NonCon=     1 RMS=4.62D-08 Max=1.36D-06 NDo=     1
 LinEq1:  Iter= 15 NonCon=     1 RMS=2.01D-08 Max=4.49D-07 NDo=     1
 LinEq1:  Iter= 16 NonCon=     1 RMS=9.80D-09 Max=4.46D-07 NDo=     1
 LinEq1:  Iter= 17 NonCon=     1 RMS=5.46D-09 Max=3.05D-07 NDo=     1
 LinEq1:  Iter= 18 NonCon=     1 RMS=2.20D-09 Max=9.67D-08 NDo=     1
 LinEq1:  Iter= 19 NonCon=     1 RMS=1.10D-09 Max=5.54D-08 NDo=     1
 LinEq1:  Iter= 20 NonCon=     1 RMS=3.38D-10 Max=1.36D-08 NDo=     1
 LinEq1:  Iter= 21 NonCon=     1 RMS=1.28D-10 Max=4.01D-09 NDo=     1
 LinEq1:  Iter= 22 NonCon=     1 RMS=5.67D-11 Max=2.16D-09 NDo=     1
 LinEq1:  Iter= 23 NonCon=     0 RMS=2.27D-11 Max=9.16D-10 NDo=     1
 Linear equations converged to 1.000D-10 1.000D-09 after    23 iterations.
 End of Minotr F.D. properties file   721 does not exist.
 End of Minotr F.D. properties file   722 does not exist.
 End of Minotr F.D. properties file   788 does not exist.

 **********************************************************************

            Population analysis using the SCF density.

 **********************************************************************

 Orbital symmetries:
       Occupied  (A) (A) (A) (A) (A) (A) (A) (A) (A) (A) (A) (A)
                 (A) (A) (A) (A) (A) (A) (A) (A) (A) (A) (A) (A)
                 (A) (A) (A) (A) (A) (A) (A) (A) (A) (A) (A) (A)
                 (A) (A) (A) (A) (A) (A) (A) (A) (A) (A) (A) (A)
                 (A) (A) (A) (A) (A) (A) (A) (A) (A) (A) (A)
       Virtual   (A) (A) (A) (A) (A) (A) (A) (A) (A) (A) (A) (A)
                 (A) (A) (A) (A) (A) (A) (A) (A) (A) (A) (A) (A)
                 (A) (A) (A) (A) (A) (A) (A) (A) (A) (A) (A) (A)
                 (A) (A) (A) (A) (A) (A) (A) (A) (A) (A) (A) (A)
                 (A) (A) (A) (A) (A) (A) (A) (A) (A) (A) (A) (A)
                 (A) (A) (A) (A) (A) (A) (A) (A) (A) (A) (A) (A)
                 (A) (A) (A) (A) (A) (A) (A) (A) (A) (A) (A) (A)
                 (A) (A) (A) (A) (A) (A) (A) (A) (A) (A) (A) (A)
                 (A) (A) (A) (A) (A) (A) (A) (A) (A) (A) (A) (A)
                 (A) (A) (A) (A) (A) (A) (A) (A) (A) (A) (A) (A)
                 (A) (A) (A) (A) (A) (A) (A) (A) (A) (A) (A) (A)
                 (A) (A) (A) (A) (A) (A) (A) (A) (A) (A) (A) (A)
                 (A) (A) (A) (A) (A) (A) (A) (A) (A) (A) (A) (A)
                 (A) (A) (A) (A) (A) (A) (A) (A) (A) (A) (A) (A)
                 (A) (A) (A) (A) (A) (A) (A) (A) (A) (A) (A) (A)
                 (A) (A) (A) (A) (A) (A) (A) (A) (A) (A) (A) (A)
                 (A) (A) (A) (A) (A) (A) (A) (A) (A) (A) (A) (A)
                 (A) (A) (A) (A) (A) (A) (A) (A) (A) (A) (A) (A)
                 (A) (A) (A) (A) (A) (A) (A) (A) (A) (A) (A) (A)
                 (A) (A) (A) (A) (A) (A) (A) (A) (A) (A) (A) (A)
                 (A) (A) (A) (A) (A) (A) (A) (A) (A) (A) (A) (A)
                 (A) (A) (A) (A) (A) (A) (A) (A) (A) (A) (A) (A)
                 (A) (A) (A) (A) (A) (A) (A) (A) (A) (A) (A) (A)
                 (A) (A) (A) (A) (A) (A) (A) (A) (A) (A) (A) (A)
                 (A) (A) (A) (A) (A) (A) (A) (A) (A) (A) (A) (A)
                 (A) (A) (A) (A) (A) (A) (A) (A) (A) (A) (A) (A)
                 (A) (A) (A) (A) (A) (A) (A) (A) (A) (A) (A) (A)
                 (A) (A) (A) (A) (A) (A) (A) (A) (A) (A) (A) (A)
                 (A) (A) (A) (A) (A) (A) (A) (A) (A) (A) (A) (A)
                 (A) (A) (A) (A) (A) (A) (A) (A) (A) (A) (A) (A)
                 (A) (A) (A) (A) (A) (A) (A) (A) (A) (A) (A) (A)
                 (A) (A) (A) (A) (A) (A) (A) (A) (A) (A) (A) (A)
                 (A) (A) (A) (A) (A) (A) (A) (A) (A) (A) (A)
 The electronic state is 1-A.
 Alpha  occ. eigenvalues --  -19.28176 -19.26062 -19.22847 -14.48969 -10.37893
 Alpha  occ. eigenvalues --  -10.35411 -10.34987 -10.34781 -10.33373 -10.32431
 Alpha  occ. eigenvalues --  -10.32272 -10.30410 -10.29945 -10.29703 -10.29036
 Alpha  occ. eigenvalues --  -10.27233  -1.17618  -1.16699  -1.13018  -1.08476
 Alpha  occ. eigenvalues --   -0.96595  -0.89453  -0.87052  -0.85903  -0.84076
 Alpha  occ. eigenvalues --   -0.80184  -0.79398  -0.74402  -0.70707  -0.68570
 Alpha  occ. eigenvalues --   -0.65080  -0.63267  -0.62176  -0.60471  -0.59282
 Alpha  occ. eigenvalues --   -0.57585  -0.57477  -0.56265  -0.54855  -0.52897
 Alpha  occ. eigenvalues --   -0.52314  -0.52149  -0.51690  -0.50348  -0.49963
 Alpha  occ. eigenvalues --   -0.49706  -0.48212  -0.47751  -0.47466  -0.46511
 Alpha  occ. eigenvalues --   -0.45515  -0.44636  -0.42082  -0.41442  -0.39085
 Alpha  occ. eigenvalues --   -0.34735  -0.34552  -0.29565  -0.28191
 Alpha virt. eigenvalues --   -0.00416   0.03920   0.04479   0.05263   0.05324
 Alpha virt. eigenvalues --    0.05941   0.06157   0.06838   0.07561   0.07770
 Alpha virt. eigenvalues --    0.08023   0.08592   0.08764   0.09174   0.09568
 Alpha virt. eigenvalues --    0.10025   0.10963   0.11618   0.11792   0.12514
 Alpha virt. eigenvalues --    0.13620   0.13651   0.13894   0.14868   0.14999
 Alpha virt. eigenvalues --    0.15535   0.15754   0.15982   0.16151   0.16484
 Alpha virt. eigenvalues --    0.17070   0.17628   0.17820   0.17996   0.18289
 Alpha virt. eigenvalues --    0.18486   0.18651   0.19411   0.19532   0.19706
 Alpha virt. eigenvalues --    0.20202   0.20366   0.20471   0.21383   0.21802
 Alpha virt. eigenvalues --    0.21952   0.22352   0.22825   0.22856   0.23641
 Alpha virt. eigenvalues --    0.23933   0.24350   0.24448   0.24967   0.25542
 Alpha virt. eigenvalues --    0.26054   0.26540   0.26689   0.27043   0.27488
 Alpha virt. eigenvalues --    0.27577   0.28019   0.28394   0.28797   0.29003
 Alpha virt. eigenvalues --    0.30171   0.30677   0.31037   0.31286   0.31504
 Alpha virt. eigenvalues --    0.32541   0.33129   0.33441   0.33993   0.34426
 Alpha virt. eigenvalues --    0.34841   0.35313   0.35590   0.35754   0.36606
 Alpha virt. eigenvalues --    0.36893   0.37227   0.37477   0.37857   0.38226
 Alpha virt. eigenvalues --    0.38734   0.39124   0.39688   0.39905   0.40211
 Alpha virt. eigenvalues --    0.40594   0.41006   0.41576   0.42441   0.42915
 Alpha virt. eigenvalues --    0.43981   0.44323   0.44935   0.45317   0.46638
 Alpha virt. eigenvalues --    0.47095   0.48301   0.49184   0.49864   0.49958
 Alpha virt. eigenvalues --    0.52256   0.52571   0.53120   0.53547   0.54310
 Alpha virt. eigenvalues --    0.56400   0.58015   0.58081   0.58998   0.60244
 Alpha virt. eigenvalues --    0.62089   0.62971   0.63487   0.64017   0.65194
 Alpha virt. eigenvalues --    0.65704   0.66896   0.67746   0.68558   0.68701
 Alpha virt. eigenvalues --    0.69453   0.70036   0.70726   0.71298   0.71358
 Alpha virt. eigenvalues --    0.71797   0.72344   0.72802   0.73031   0.73802
 Alpha virt. eigenvalues --    0.74479   0.75207   0.75866   0.76888   0.77514
 Alpha virt. eigenvalues --    0.78770   0.79086   0.79657   0.80154   0.80823
 Alpha virt. eigenvalues --    0.82101   0.82964   0.83983   0.85260   0.85976
 Alpha virt. eigenvalues --    0.87440   0.87650   0.89019   0.89928   0.92312
 Alpha virt. eigenvalues --    0.94445   0.94965   0.96011   0.96820   0.98157
 Alpha virt. eigenvalues --    0.98993   0.99676   1.00360   1.02089   1.02599
 Alpha virt. eigenvalues --    1.03286   1.04912   1.05651   1.06464   1.07097
 Alpha virt. eigenvalues --    1.08583   1.09662   1.10941   1.11321   1.12129
 Alpha virt. eigenvalues --    1.12977   1.14567   1.14800   1.15320   1.16578
 Alpha virt. eigenvalues --    1.17368   1.17868   1.18979   1.20378   1.21125
 Alpha virt. eigenvalues --    1.21249   1.24232   1.27094   1.28162   1.31082
 Alpha virt. eigenvalues --    1.32649   1.32882   1.33715   1.36578   1.37040
 Alpha virt. eigenvalues --    1.37625   1.39041   1.41513   1.44459   1.45051
 Alpha virt. eigenvalues --    1.46750   1.50694   1.52173   1.52657   1.52877
 Alpha virt. eigenvalues --    1.53122   1.54772   1.55722   1.57023   1.59247
 Alpha virt. eigenvalues --    1.60036   1.60657   1.61369   1.63415   1.64066
 Alpha virt. eigenvalues --    1.64516   1.66324   1.67312   1.67548   1.67699
 Alpha virt. eigenvalues --    1.68945   1.69089   1.70422   1.72022   1.73783
 Alpha virt. eigenvalues --    1.74844   1.76772   1.77370   1.77845   1.78185
 Alpha virt. eigenvalues --    1.79064   1.81301   1.81746   1.82303   1.82803
 Alpha virt. eigenvalues --    1.83864   1.85429   1.86712   1.87894   1.89364
 Alpha virt. eigenvalues --    1.91483   1.92384   1.93920   1.96035   1.96725
 Alpha virt. eigenvalues --    1.98227   1.99389   2.01109   2.03419   2.04740
 Alpha virt. eigenvalues --    2.05170   2.05191   2.07405   2.08448   2.09021
 Alpha virt. eigenvalues --    2.10026   2.12729   2.13811   2.14121   2.17035
 Alpha virt. eigenvalues --    2.18408   2.18923   2.20957   2.21519   2.23392
 Alpha virt. eigenvalues --    2.24324   2.25966   2.27638   2.27836   2.28203
 Alpha virt. eigenvalues --    2.31666   2.32785   2.35943   2.41390   2.41874
 Alpha virt. eigenvalues --    2.43494   2.48019   2.48520   2.50913   2.51664
 Alpha virt. eigenvalues --    2.54874   2.55944   2.56238   2.56439   2.58041
 Alpha virt. eigenvalues --    2.59117   2.60327   2.61360   2.63744   2.64673
 Alpha virt. eigenvalues --    2.65800   2.67355   2.69721   2.71192   2.72990
 Alpha virt. eigenvalues --    2.73536   2.74520   2.76632   2.77395   2.78694
 Alpha virt. eigenvalues --    2.80265   2.80881   2.82009   2.83220   2.84985
 Alpha virt. eigenvalues --    2.85761   2.86246   2.86520   2.89118   2.90883
 Alpha virt. eigenvalues --    2.92311   2.93918   2.95274   2.95860   2.97179
 Alpha virt. eigenvalues --    2.99305   3.00495   3.03530   3.03730   3.08700
 Alpha virt. eigenvalues --    3.12413   3.15094   3.15595   3.17098   3.18885
 Alpha virt. eigenvalues --    3.19569   3.21485   3.22051   3.24233   3.25184
 Alpha virt. eigenvalues --    3.28875   3.29430   3.29957   3.32324   3.33919
 Alpha virt. eigenvalues --    3.37712   3.41869   3.44568   3.50691   3.52514
 Alpha virt. eigenvalues --    3.57112   3.61075   3.63553   3.66873   3.69166
 Alpha virt. eigenvalues --    3.72448   3.75137   3.77184   3.80948   3.82082
 Alpha virt. eigenvalues --    3.83457   3.86877   3.87782   3.89923   3.93852
 Alpha virt. eigenvalues --    3.95031   3.95737   4.02842   4.09572   4.13768
 Alpha virt. eigenvalues --    4.19061   4.21022   4.25618   4.29729   4.33315
 Alpha virt. eigenvalues --    4.39938   4.65238   4.95701   4.98525   5.13278
 Alpha virt. eigenvalues --    5.14945   5.18380   5.18958   5.41976   5.53728
 Alpha virt. eigenvalues --    5.61997   5.86571   5.91529   5.94892  23.73263
 Alpha virt. eigenvalues --   23.94802  24.04150  24.05430  24.06584  24.06761
 Alpha virt. eigenvalues --   24.08448  24.10158  24.16607  24.23522  24.27569
 Alpha virt. eigenvalues --   24.31726  35.71407  50.10417  50.13499  50.19252
          Condensed to atoms (all electrons):
               1          2          3          4          5          6
     1  C    5.299113   0.388512   0.418811  -0.061022   0.003521   0.232878
     2  H    0.388512   0.450975  -0.012876   0.004028  -0.004662  -0.045490
     3  H    0.418811  -0.012876   0.518565  -0.002954  -0.001690  -0.047729
     4  C   -0.061022   0.004028  -0.002954   5.191661   0.405742   0.249683
     5  H    0.003521  -0.004662  -0.001690   0.405742   0.534267  -0.043452
     6  N    0.232878  -0.045490  -0.047729   0.249683  -0.043452   6.787024
     7  H    0.409658  -0.019994  -0.055263   0.005304   0.003032  -0.031102
     8  H   -0.004680   0.003194  -0.001042   0.410625  -0.028577  -0.092094
     9  H   -0.000944  -0.006574   0.002678   0.404180  -0.058113  -0.039072
    10  C   -0.042060   0.026963  -0.013222   0.094781  -0.028737   0.282677
    11  H    0.012965  -0.000103  -0.000309  -0.034011   0.004605  -0.058721
    12  C    0.577707   0.033691  -0.015353  -0.204426   0.017029  -0.302765
    13  C   -0.429018  -0.027359   0.015059  -0.122797  -0.004007   0.020712
    14  H    0.012284  -0.000560  -0.025293  -0.009577   0.001977  -0.016973
    15  O   -0.002117   0.000059   0.000347   0.000815  -0.000082   0.003829
    16  C   -0.370557  -0.012794   0.005485   0.032343  -0.002365  -0.009269
    17  C   -0.070022  -0.001659   0.002548  -0.003753  -0.000681   0.001775
    18  C    0.089736  -0.000442   0.008315  -0.025432   0.000417  -0.011560
    19  O   -0.000081  -0.000005   0.000033   0.000208   0.000000  -0.000096
    20  C   -0.000294   0.000042  -0.000398  -0.001239  -0.000029  -0.000148
    21  C    0.001689  -0.000369   0.000789   0.001464  -0.000008   0.001600
    22  H    0.006942   0.000455   0.005116  -0.002761  -0.000336  -0.009522
    23  H   -0.001086  -0.000089   0.000122   0.000061  -0.000008  -0.000095
    24  H    0.000038   0.000001  -0.000006   0.000015   0.000000  -0.000025
    25  C   -0.008185  -0.000294  -0.001166   0.000010   0.000022   0.002439
    26  H   -0.000116  -0.000005  -0.000004  -0.000002   0.000001   0.000025
    27  O   -0.000092  -0.000014   0.000011  -0.000016   0.000000  -0.000063
    28  C   -0.000555  -0.000026   0.000112   0.000000  -0.000001  -0.000033
    29  H    0.000006   0.000000   0.000005   0.000002   0.000000  -0.000006
    30  H   -0.000006  -0.000001  -0.000007   0.000003   0.000000   0.000005
    31  H   -0.000046  -0.000001  -0.000004  -0.000003   0.000000  -0.000002
               7          8          9         10         11         12
     1  C    0.409658  -0.004680  -0.000944  -0.042060   0.012965   0.577707
     2  H   -0.019994   0.003194  -0.006574   0.026963  -0.000103   0.033691
     3  H   -0.055263  -0.001042   0.002678  -0.013222  -0.000309  -0.015353
     4  C    0.005304   0.410625   0.404180   0.094781  -0.034011  -0.204426
     5  H    0.003032  -0.028577  -0.058113  -0.028737   0.004605   0.017029
     6  N   -0.031102  -0.092094  -0.039072   0.282677  -0.058721  -0.302765
     7  H    0.527428  -0.002265  -0.001649   0.047040  -0.000234  -0.053353
     8  H   -0.002265   0.526468  -0.027287   0.064989  -0.011441  -0.027126
     9  H   -0.001649  -0.027287   0.534474  -0.032044   0.002658   0.023368
    10  C    0.047040   0.064989  -0.032044  15.637921   0.267814  -1.912662
    11  H   -0.000234  -0.011441   0.002658   0.267814   0.458557   0.227433
    12  C   -0.053353  -0.027126   0.023368  -1.912662   0.227433  23.419781
    13  C   -0.027386   0.018107   0.001145  -5.533179   0.014734   1.068854
    14  H    0.021190  -0.003593   0.000288   0.014805   0.007833   0.798018
    15  O    0.000263   0.001464  -0.000053   0.249255   0.007607  -0.420271
    16  C    0.006093   0.016131   0.000155   0.655862  -0.118811  -9.906889
    17  C   -0.000557   0.005269  -0.000167  -0.692204  -0.064665  -5.954452
    18  C   -0.019695  -0.005360   0.000409  -2.913919   0.045938   1.378910
    19  O    0.000013  -0.000027   0.000001   0.007386  -0.000199  -0.038808
    20  C   -0.000989   0.000243   0.000008  -0.392102  -0.007217  -0.657449
    21  C    0.002420  -0.000199   0.000099   0.089645   0.002447  -0.731739
    22  H   -0.010681   0.000455   0.000099  -0.243140   0.000013  -0.175189
    23  H   -0.000082   0.000066   0.000029  -0.016590   0.000352  -0.013801
    24  H   -0.000019   0.000003   0.000001   0.000024  -0.000186   0.000065
    25  C    0.002916   0.000025  -0.000022  -0.076934  -0.001011  -0.693300
    26  H    0.000024  -0.000001  -0.000001  -0.001434   0.000028  -0.005409
    27  O    0.000019  -0.000002   0.000001  -0.002533  -0.000016   0.000887
    28  C   -0.000057   0.000004   0.000000  -0.001017  -0.000085  -0.040355
    29  H    0.000014   0.000000   0.000000   0.000248   0.000004  -0.000015
    30  H    0.000006   0.000000   0.000000   0.001015  -0.000005   0.002188
    31  H   -0.000007   0.000000   0.000000  -0.000916  -0.000002  -0.003123
              13         14         15         16         17         18
     1  C   -0.429018   0.012284  -0.002117  -0.370557  -0.070022   0.089736
     2  H   -0.027359  -0.000560   0.000059  -0.012794  -0.001659  -0.000442
     3  H    0.015059  -0.025293   0.000347   0.005485   0.002548   0.008315
     4  C   -0.122797  -0.009577   0.000815   0.032343  -0.003753  -0.025432
     5  H   -0.004007   0.001977  -0.000082  -0.002365  -0.000681   0.000417
     6  N    0.020712  -0.016973   0.003829  -0.009269   0.001775  -0.011560
     7  H   -0.027386   0.021190   0.000263   0.006093  -0.000557  -0.019695
     8  H    0.018107  -0.003593   0.001464   0.016131   0.005269  -0.005360
     9  H    0.001145   0.000288  -0.000053   0.000155  -0.000167   0.000409
    10  C   -5.533179   0.014805   0.249255   0.655862  -0.692204  -2.913919
    11  H    0.014734   0.007833   0.007607  -0.118811  -0.064665   0.045938
    12  C    1.068854   0.798018  -0.420271  -9.906889  -5.954452   1.378910
    13  C   18.160059   0.042219   0.794281   0.465995  -4.706507   0.609525
    14  H    0.042219   0.707909  -0.011978  -0.068711  -0.086237  -0.307382
    15  O    0.794281  -0.011978   8.239459  -0.050789  -0.251418  -0.122430
    16  C    0.465995  -0.068711  -0.050789  24.581204   3.814231  -8.104444
    17  C   -4.706507  -0.086237  -0.251418   3.814231  18.069074  -4.706143
    18  C    0.609525  -0.307382  -0.122430  -8.104444  -4.706143  18.466075
    19  O   -0.085904  -0.000609   0.000909   0.146523   0.301240   0.025430
    20  C   -0.854542   0.004011  -0.081956  -2.196513   2.272536  -0.368220
    21  C   -1.504172  -0.162630   0.003172  -5.046977  -0.786967   4.536099
    22  H   -0.076200  -0.102101   0.002955  -0.573806   0.078136   1.218839
    23  H    0.027222  -0.003696   0.068042  -0.164738   0.033291   0.050760
    24  H   -0.004240  -0.000137   0.001094  -0.109673  -0.127046   0.009083
    25  C   -1.284100   0.061705  -0.031279   0.889852  -1.286878  -1.901118
    26  H    0.004653   0.001370  -0.000464   0.143725  -0.015214  -0.076028
    27  O    0.008749   0.003668   0.000041   0.073412   0.038815  -0.104611
    28  C   -0.068545  -0.003461   0.000082  -0.093481   0.020447   0.179036
    29  H    0.000746  -0.000885   0.000005  -0.012608   0.004806   0.004911
    30  H   -0.000165   0.000805   0.000025   0.010986   0.011281   0.017696
    31  H   -0.001689   0.000408   0.000004   0.000233  -0.005234  -0.005107
              19         20         21         22         23         24
     1  C   -0.000081  -0.000294   0.001689   0.006942  -0.001086   0.000038
     2  H   -0.000005   0.000042  -0.000369   0.000455  -0.000089   0.000001
     3  H    0.000033  -0.000398   0.000789   0.005116   0.000122  -0.000006
     4  C    0.000208  -0.001239   0.001464  -0.002761   0.000061   0.000015
     5  H    0.000000  -0.000029  -0.000008  -0.000336  -0.000008   0.000000
     6  N   -0.000096  -0.000148   0.001600  -0.009522  -0.000095  -0.000025
     7  H    0.000013  -0.000989   0.002420  -0.010681  -0.000082  -0.000019
     8  H   -0.000027   0.000243  -0.000199   0.000455   0.000066   0.000003
     9  H    0.000001   0.000008   0.000099   0.000099   0.000029   0.000001
    10  C    0.007386  -0.392102   0.089645  -0.243140  -0.016590   0.000024
    11  H   -0.000199  -0.007217   0.002447   0.000013   0.000352  -0.000186
    12  C   -0.038808  -0.657449  -0.731739  -0.175189  -0.013801   0.000065
    13  C   -0.085904  -0.854542  -1.504172  -0.076200   0.027222  -0.004240
    14  H   -0.000609   0.004011  -0.162630  -0.102101  -0.003696  -0.000137
    15  O    0.000909  -0.081956   0.003172   0.002955   0.068042   0.001094
    16  C    0.146523  -2.196513  -5.046977  -0.573806  -0.164738  -0.109673
    17  C    0.301240   2.272536  -0.786967   0.078136   0.033291  -0.127046
    18  C    0.025430  -0.368220   4.536099   1.218839   0.050760   0.009083
    19  O    8.190701  -0.381356  -0.013628  -0.001182   0.254770  -0.026266
    20  C   -0.381356  10.447430  -1.684033   0.017479   0.066055   0.525163
    21  C   -0.013628  -1.684033  13.081574   0.328479   0.029457   0.038370
    22  H   -0.001182   0.017479   0.328479   0.648477   0.005122   0.002120
    23  H    0.254770   0.066055   0.029457   0.005122   0.305857   0.002060
    24  H   -0.026266   0.525163   0.038370   0.002120   0.002060   0.449888
    25  C   -0.012900  -0.154582  -1.325298  -0.281058  -0.010451  -0.008720
    26  H    0.001647  -0.074813  -0.243932  -0.010320  -0.000784  -0.012479
    27  O    0.000363   0.069433  -0.098128  -0.048392   0.000391   0.000114
    28  C   -0.001043  -0.260782   0.375594   0.021774   0.000235   0.005117
    29  H    0.000063   0.013088  -0.022249   0.002022   0.000053   0.000580
    30  H    0.000058   0.008204  -0.062155  -0.004715   0.000011   0.000720
    31  H   -0.000040  -0.015370   0.052541  -0.000507  -0.000016   0.000150
              25         26         27         28         29         30
     1  C   -0.008185  -0.000116  -0.000092  -0.000555   0.000006  -0.000006
     2  H   -0.000294  -0.000005  -0.000014  -0.000026   0.000000  -0.000001
     3  H   -0.001166  -0.000004   0.000011   0.000112   0.000005  -0.000007
     4  C    0.000010  -0.000002  -0.000016   0.000000   0.000002   0.000003
     5  H    0.000022   0.000001   0.000000  -0.000001   0.000000   0.000000
     6  N    0.002439   0.000025  -0.000063  -0.000033  -0.000006   0.000005
     7  H    0.002916   0.000024   0.000019  -0.000057   0.000014   0.000006
     8  H    0.000025  -0.000001  -0.000002   0.000004   0.000000   0.000000
     9  H   -0.000022  -0.000001   0.000001   0.000000   0.000000   0.000000
    10  C   -0.076934  -0.001434  -0.002533  -0.001017   0.000248   0.001015
    11  H   -0.001011   0.000028  -0.000016  -0.000085   0.000004  -0.000005
    12  C   -0.693300  -0.005409   0.000887  -0.040355  -0.000015   0.002188
    13  C   -1.284100   0.004653   0.008749  -0.068545   0.000746  -0.000165
    14  H    0.061705   0.001370   0.003668  -0.003461  -0.000885   0.000805
    15  O   -0.031279  -0.000464   0.000041   0.000082   0.000005   0.000025
    16  C    0.889852   0.143725   0.073412  -0.093481  -0.012608   0.010986
    17  C   -1.286878  -0.015214   0.038815   0.020447   0.004806   0.011281
    18  C   -1.901118  -0.076028  -0.104611   0.179036   0.004911   0.017696
    19  O   -0.012900   0.001647   0.000363  -0.001043   0.000063   0.000058
    20  C   -0.154582  -0.074813   0.069433  -0.260782   0.013088   0.008204
    21  C   -1.325298  -0.243932  -0.098128   0.375594  -0.022249  -0.062155
    22  H   -0.281058  -0.010320  -0.048392   0.021774   0.002022  -0.004715
    23  H   -0.010451  -0.000784   0.000391   0.000235   0.000053   0.000011
    24  H   -0.008720  -0.012479   0.000114   0.005117   0.000580   0.000720
    25  C   11.567665   0.623749  -0.001139  -0.371387  -0.007865  -0.004493
    26  H    0.623749   0.472856  -0.017480  -0.017541  -0.007085  -0.010860
    27  O   -0.001139  -0.017480   8.215387   0.167866  -0.032106  -0.035095
    28  C   -0.371387  -0.017541   0.167866   5.274681   0.404312   0.405060
    29  H   -0.007865  -0.007085  -0.032106   0.404312   0.560403  -0.059781
    30  H   -0.004493  -0.010860  -0.035095   0.405060  -0.059781   0.563580
    31  H    0.016926   0.002984  -0.066340   0.396787  -0.021892  -0.019958
              31
     1  C   -0.000046
     2  H   -0.000001
     3  H   -0.000004
     4  C   -0.000003
     5  H    0.000000
     6  N   -0.000002
     7  H   -0.000007
     8  H    0.000000
     9  H    0.000000
    10  C   -0.000916
    11  H   -0.000002
    12  C   -0.003123
    13  C   -0.001689
    14  H    0.000408
    15  O    0.000004
    16  C    0.000233
    17  C   -0.005234
    18  C   -0.005107
    19  O   -0.000040
    20  C   -0.015370
    21  C    0.052541
    22  H   -0.000507
    23  H   -0.000016
    24  H    0.000150
    25  C    0.016926
    26  H    0.002984
    27  O   -0.066340
    28  C    0.396787
    29  H   -0.021892
    30  H   -0.019958
    31  H    0.455977
 Mulliken charges:
               1
     1  C   -0.462981
     2  H    0.225398
     3  H    0.199322
     4  C   -0.332930
     5  H    0.202137
     6  N    0.125568
     7  H    0.197913
     8  H    0.156649
     9  H    0.196334
    10  C    0.462268
    11  H    0.244030
    12  C   -0.391449
    13  C   -0.522251
    14  H    0.125332
    15  O   -0.400869
    16  C    2.000196
    17  C    0.106358
    18  C   -1.969287
    19  O   -0.367201
    20  C   -0.291661
    21  C   -0.862957
    22  H    0.201426
    23  H    0.367482
    24  H    0.254191
    25  C    0.296871
    26  H    0.242910
    27  O   -0.173129
    28  C   -0.392737
    29  H    0.173223
    30  H    0.175597
    31  H    0.214248
 Sum of Mulliken charges =   0.00000
 Mulliken charges with hydrogens summed into heavy atoms:
               1
     1  C    0.159652
     4  C    0.222189
     6  N    0.125568
    10  C    0.706298
    12  C   -0.266117
    13  C   -0.522251
    15  O   -0.400869
    16  C    2.000196
    17  C    0.106358
    18  C   -1.767861
    19  O    0.000281
    20  C   -0.037469
    21  C   -0.862957
    25  C    0.539781
    27  O   -0.173129
    28  C    0.170330
 Electronic spatial extent (au):  <R**2>=           5321.6497
 Charge=              0.0000 electrons
 Dipole moment (field-independent basis, Debye):
    X=              4.7365    Y=             -6.8416    Z=              0.1997  Tot=              8.3236
 Quadrupole moment (field-independent basis, Debye-Ang):
   XX=            -42.0938   YY=           -103.0103   ZZ=            -98.9077
   XY=             -1.8760   XZ=              0.1771   YZ=             -0.3292
 Traceless Quadrupole moment (field-independent basis, Debye-Ang):
   XX=             39.2434   YY=            -21.6730   ZZ=            -17.5704
   XY=             -1.8760   XZ=              0.1771   YZ=             -0.3292
 Octapole moment (field-independent basis, Debye-Ang**2):
  XXX=             94.9263  YYY=            -61.1962  ZZZ=             -0.2450  XYY=             15.7627
  XXY=            -64.3747  XXZ=              0.8666  XZZ=              6.7946  YZZ=             -2.7797
  YYZ=              0.3127  XYZ=             -1.5176
 Hexadecapole moment (field-independent basis, Debye-Ang**3):
 XXXX=          -3807.9711 YYYY=          -1661.9984 ZZZZ=           -130.1687 XXXY=             39.6634
 XXXZ=             -8.2757 YYYX=             61.6162 YYYZ=             -1.6472 ZZZX=              3.1456
 ZZZY=             -1.7413 XXYY=           -992.1929 XXZZ=           -924.3642 YYZZ=           -291.5141
 XXYZ=             -2.4268 YYXZ=              4.7676 ZZXY=              6.9530
 N-N= 1.053029909428D+03 E-N=-3.849537636920D+03  KE= 7.437541764511D+02
 D1PCM: PCM CHGder 1st derivatives, ID1Alg=3 FixD1E=F DoIter=F DoCFld=F I1PDM=6.
 Calling FoFJK, ICntrl=  10005127 FMM=F ISym2X=0 I1Cent= 0 IOpClX= 0 NMat=1 NMatS=1 NMatT=0.
 ***** Axes restored to original set *****
 -------------------------------------------------------------------
 Center     Atomic                   Forces (Hartrees/Bohr)
 Number     Number              X              Y              Z
 -------------------------------------------------------------------
      1        6           0.002013330   -0.000826195   -0.003415342
      2        1           0.000069815    0.000127026    0.000126303
      3        1          -0.000916722    0.000492177    0.000306933
      4        6          -0.003279111   -0.001239673    0.001254371
      5        1           0.000401445    0.000841999   -0.000115737
      6        7           0.011602196    0.010045841    0.008276671
      7        1          -0.000335684   -0.000466475    0.000710863
      8        1          -0.000128443   -0.000077865   -0.000008642
      9        1           0.000795119    0.000046887    0.000299622
     10        6          -0.002153961   -0.005768464   -0.009736976
     11        1          -0.000735381   -0.000338028    0.000400145
     12        6           0.000777417    0.001690470    0.003749495
     13        6          -0.042158138   -0.007325710    0.036326469
     14        1           0.000172722    0.000778811    0.000673907
     15        8           0.008175016   -0.011208585   -0.040582760
     16        6           0.054059335    0.026445612   -0.000962936
     17        6          -0.017684268   -0.016872991   -0.025468325
     18        6           0.006450692    0.004827962    0.005922393
     19        8          -0.008281730    0.003710020    0.024649338
     20        6          -0.006414255   -0.004283737   -0.003572027
     21        6           0.002716743    0.006503905    0.016782358
     22        1          -0.000309915   -0.000804551   -0.000420487
     23        1           0.014001417    0.006578228   -0.000064685
     24        1           0.000227212    0.000121849   -0.000071482
     25        6          -0.018829881   -0.008007899    0.002769358
     26        1           0.000388865    0.000186903   -0.000454795
     27        8           0.002625682   -0.004737027   -0.021474547
     28        6          -0.005942060   -0.001716605    0.004394202
     29        1           0.001463550    0.000016815    0.000188684
     30        1           0.000876286    0.001192932   -0.000062644
     31        1           0.000352709    0.000066368   -0.000419726
 -------------------------------------------------------------------
 Cartesian Forces:  Max     0.054059335 RMS     0.011714445

 GradGradGradGradGradGradGradGradGradGradGradGradGradGradGradGradGradGrad
 Berny optimization.
 FormGI is forming the generalized inverse of G from B-inverse, IUseBI=4.
 Internal  Forces:  Max     0.042816552 RMS     0.007128406
 Search for a local minimum.
 Step number   1 out of a maximum of  150
 All quantities printed in internal units (Hartrees-Bohrs-Radians)
 Mixed Optimization -- RFO/linear search
 Second derivative matrix not updated -- first step.
 ITU=  0
     Eigenvalues ---    0.00833   0.00975   0.00990   0.01254   0.01415
     Eigenvalues ---    0.01492   0.01644   0.01651   0.02011   0.02049
     Eigenvalues ---    0.02114   0.02167   0.02169   0.02184   0.02195
     Eigenvalues ---    0.02215   0.02226   0.02237   0.02390   0.02452
     Eigenvalues ---    0.02535   0.02623   0.07435   0.07491   0.07563
     Eigenvalues ---    0.07627   0.10082   0.10660   0.15999   0.15999
     Eigenvalues ---    0.16000   0.16000   0.16000   0.16000   0.16000
     Eigenvalues ---    0.16000   0.16000   0.16000   0.16000   0.16000
     Eigenvalues ---    0.16000   0.16000   0.16000   0.22000   0.22000
     Eigenvalues ---    0.22368   0.23483   0.24596   0.24994   0.24996
     Eigenvalues ---    0.24999   0.25000   0.25000   0.25000   0.25000
     Eigenvalues ---    0.25000   0.32916   0.34214   0.34224   0.34334
     Eigenvalues ---    0.34384   0.34430   0.34465   0.34922   0.34994
     Eigenvalues ---    0.35003   0.35323   0.35546   0.35719   0.35748
     Eigenvalues ---    0.36143   0.37705   0.37850   0.40474   0.41275
     Eigenvalues ---    0.42609   0.43203   0.45066   0.46322   0.47353
     Eigenvalues ---    0.47717   0.49830   0.50485   0.52126   0.55615
     Eigenvalues ---    0.59597   0.82329
 RFO step:  Lambda=-1.70689672D-02 EMin= 8.33178099D-03
 Linear search not attempted -- first point.
 Iteration  1 RMS(Cart)=  0.10111697 RMS(Int)=  0.00211739
 Iteration  2 RMS(Cart)=  0.00389808 RMS(Int)=  0.00007252
 Iteration  3 RMS(Cart)=  0.00000897 RMS(Int)=  0.00007236
 Iteration  4 RMS(Cart)=  0.00000000 RMS(Int)=  0.00007236
 Variable       Old X    -DE/DX   Delta X   Delta X   Delta X     New X
                                 (Linear)    (Quad)   (Total)
    R1        2.05684   0.00015   0.00000   0.00041   0.00041   2.05725
    R2        2.06770   0.00104   0.00000   0.00288   0.00288   2.07058
    R3        2.74584  -0.00241   0.00000  -0.00608  -0.00608   2.73976
    R4        2.06687   0.00086   0.00000   0.00239   0.00239   2.06926
    R5        2.06610   0.00088   0.00000   0.00243   0.00243   2.06853
    R6        2.74797  -0.00267   0.00000  -0.00676  -0.00676   2.74120
    R7        2.05802   0.00005   0.00000   0.00013   0.00013   2.05815
    R8        2.06552   0.00078   0.00000   0.00215   0.00215   2.06767
    R9        2.51261   0.01536   0.00000   0.02506   0.02506   2.53767
   R10        2.05154  -0.00037   0.00000  -0.00099  -0.00099   2.05055
   R11        2.59379   0.00783   0.00000   0.01500   0.01500   2.60879
   R12        2.70915   0.00975   0.00000   0.02312   0.02312   2.73227
   R13        2.03859   0.00085   0.00000   0.00224   0.00224   2.04082
   R14        2.36684   0.04282   0.00000   0.05095   0.05095   2.41779
   R15        2.82498  -0.02465   0.00000  -0.07119  -0.07119   2.75379
   R16        2.67127   0.01908   0.00000   0.04188   0.04192   2.71319
   R17        2.64293   0.00480   0.00000   0.01020   0.01025   2.65318
   R18        2.54590  -0.02551   0.00000  -0.04451  -0.04451   2.50139
   R19        2.63162   0.00698   0.00000   0.01391   0.01391   2.64553
   R20        2.61999   0.01423   0.00000   0.02911   0.02911   2.64911
   R21        2.04477  -0.00082   0.00000  -0.00220  -0.00220   2.04257
   R22        1.86737   0.01492   0.00000   0.02895   0.02895   1.89632
   R23        2.04798  -0.00018   0.00000  -0.00048  -0.00048   2.04750
   R24        2.61953   0.00347   0.00000   0.00688   0.00683   2.62636
   R25        2.63738   0.01669   0.00000   0.03509   0.03505   2.67242
   R26        2.57778  -0.01799   0.00000  -0.03342  -0.03342   2.54436
   R27        2.04524  -0.00058   0.00000  -0.00155  -0.00155   2.04369
   R28        2.67420   0.00479   0.00000   0.01066   0.01066   2.68486
   R29        2.06953  -0.00125   0.00000  -0.00348  -0.00348   2.06605
   R30        2.06970  -0.00128   0.00000  -0.00357  -0.00357   2.06613
   R31        2.05671  -0.00034   0.00000  -0.00093  -0.00093   2.05578
    A1        1.89912  -0.00008   0.00000  -0.00008  -0.00008   1.89904
    A2        1.90372   0.00017   0.00000   0.00135   0.00135   1.90507
    A3        1.89802  -0.00008   0.00000   0.00000   0.00000   1.89802
    A4        1.93263   0.00016   0.00000   0.00066   0.00066   1.93329
    A5        1.89924  -0.00037   0.00000  -0.00286  -0.00286   1.89638
    A6        1.93053   0.00019   0.00000   0.00090   0.00090   1.93143
    A7        1.92641   0.00036   0.00000   0.00196   0.00196   1.92837
    A8        1.89905  -0.00001   0.00000   0.00003   0.00003   1.89908
    A9        1.89970  -0.00041   0.00000  -0.00257  -0.00257   1.89713
   A10        1.91534  -0.00029   0.00000  -0.00149  -0.00149   1.91384
   A11        1.92424   0.00032   0.00000   0.00175   0.00174   1.92599
   A12        1.89864   0.00002   0.00000   0.00027   0.00027   1.89891
   A13        2.05354  -0.00048   0.00000  -0.00181  -0.00181   2.05173
   A14        2.10556   0.00130   0.00000   0.00485   0.00485   2.11041
   A15        2.12388  -0.00081   0.00000  -0.00306  -0.00306   2.12082
   A16        2.01678   0.00153   0.00000   0.00766   0.00766   2.02445
   A17        2.20778  -0.00139   0.00000  -0.00585  -0.00585   2.20194
   A18        2.05862  -0.00015   0.00000  -0.00181  -0.00181   2.05680
   A19        2.07786   0.00396   0.00000   0.01670   0.01670   2.09456
   A20        2.10425  -0.00252   0.00000  -0.01144  -0.01144   2.09281
   A21        2.10097  -0.00144   0.00000  -0.00533  -0.00533   2.09565
   A22        2.12606  -0.00258   0.00000  -0.00970  -0.00972   2.11634
   A23        2.09426  -0.00026   0.00000  -0.00101  -0.00104   2.09323
   A24        2.06282   0.00284   0.00000   0.01059   0.01057   2.07338
   A25        2.08630  -0.01588   0.00000  -0.05982  -0.05987   2.02643
   A26        2.13231   0.02398   0.00000   0.08943   0.08937   2.22169
   A27        2.06457  -0.00809   0.00000  -0.02963  -0.02954   2.03503
   A28        2.13913  -0.02259   0.00000  -0.08442  -0.08444   2.05469
   A29        2.08523   0.01323   0.00000   0.04922   0.04925   2.13448
   A30        2.05883   0.00936   0.00000   0.03520   0.03519   2.09401
   A31        2.12764  -0.00519   0.00000  -0.01941  -0.01936   2.10827
   A32        2.10951   0.00250   0.00000   0.00915   0.00913   2.11864
   A33        2.04597   0.00269   0.00000   0.01025   0.01022   2.05620
   A34        1.83998  -0.00752   0.00000  -0.04245  -0.04245   1.79753
   A35        2.06826   0.00219   0.00000   0.00886   0.00888   2.07715
   A36        2.11676  -0.00478   0.00000  -0.01999  -0.02005   2.09672
   A37        2.09814   0.00260   0.00000   0.01116   0.01118   2.10932
   A38        2.08181   0.01082   0.00000   0.04318   0.04313   2.12495
   A39        2.02870  -0.00519   0.00000  -0.02076  -0.02074   2.00796
   A40        2.17267  -0.00563   0.00000  -0.02241  -0.02239   2.15028
   A41        2.09021  -0.00598   0.00000  -0.02338  -0.02347   2.06674
   A42        2.07662   0.00278   0.00000   0.01047   0.01051   2.08714
[...]
 Alpha virt. eigenvalues --    2.18465   2.18802   2.20237   2.21283   2.22738
 Alpha virt. eigenvalues --    2.24088   2.24972   2.26370   2.28484   2.28921
 Alpha virt. eigenvalues --    2.31180   2.34042   2.38093   2.39181   2.40506
 Alpha virt. eigenvalues --    2.42495   2.45430   2.47518   2.48933   2.51526
 Alpha virt. eigenvalues --    2.53757   2.55411   2.55732   2.56950   2.58611
 Alpha virt. eigenvalues --    2.58967   2.59841   2.61660   2.63459   2.64493
 Alpha virt. eigenvalues --    2.65506   2.67687   2.69030   2.70908   2.71698
 Alpha virt. eigenvalues --    2.72229   2.74264   2.76772   2.77485   2.78525
 Alpha virt. eigenvalues --    2.79781   2.80396   2.81339   2.83280   2.84795
 Alpha virt. eigenvalues --    2.85175   2.86002   2.87015   2.90146   2.90866
 Alpha virt. eigenvalues --    2.91462   2.93715   2.95277   2.95849   2.96969
 Alpha virt. eigenvalues --    2.98891   3.00040   3.02338   3.04613   3.06733
 Alpha virt. eigenvalues --    3.10786   3.12670   3.15257   3.16197   3.17815
 Alpha virt. eigenvalues --    3.19967   3.20618   3.21651   3.22974   3.24890
 Alpha virt. eigenvalues --    3.27384   3.30311   3.31554   3.34810   3.35887
 Alpha virt. eigenvalues --    3.38710   3.42418   3.42888   3.48692   3.52482
 Alpha virt. eigenvalues --    3.53998   3.59168   3.62182   3.65449   3.68941
 Alpha virt. eigenvalues --    3.71275   3.74630   3.75757   3.79406   3.80994
 Alpha virt. eigenvalues --    3.83084   3.86023   3.88495   3.89031   3.94161
 Alpha virt. eigenvalues --    3.94289   3.95370   4.01638   4.08355   4.11584
 Alpha virt. eigenvalues --    4.19265   4.21753   4.27596   4.29882   4.35097
 Alpha virt. eigenvalues --    4.37319   4.68067   4.91701   4.98138   5.11482
 Alpha virt. eigenvalues --    5.15202   5.17382   5.20807   5.39773   5.53815
 Alpha virt. eigenvalues --    5.61725   5.86914   5.91217   5.96346  23.76111
 Alpha virt. eigenvalues --   23.91522  24.01180  24.04720  24.06264  24.06845
 Alpha virt. eigenvalues --   24.08417  24.10011  24.12652  24.22687  24.24792
 Alpha virt. eigenvalues --   24.29330  35.69152  50.09745  50.11476  50.22063
          Condensed to atoms (all electrons):
               1          2          3          4          5          6
     1  C    5.285518   0.384103   0.406840  -0.072311  -0.006144   0.237509
     2  H    0.384103   0.441910  -0.020486   0.002191  -0.004994  -0.043135
     3  H    0.406840  -0.020486   0.525610   0.008864  -0.001864  -0.027404
     4  C   -0.072311   0.002191   0.008864   5.211935   0.405383   0.260007
     5  H   -0.006144  -0.004994  -0.001864   0.405383   0.527675  -0.035968
     6  N    0.237509  -0.043135  -0.027404   0.260007  -0.035968   6.742329
     7  H    0.422772  -0.010073  -0.055352  -0.006812   0.002983  -0.047781
     8  H   -0.003924   0.003002  -0.002458   0.404811  -0.025706  -0.093894
     9  H    0.007239  -0.004961   0.002687   0.402344  -0.057661  -0.041307
    10  C   -0.046040   0.024044   0.089309   0.007369  -0.024267   0.282134
    11  H    0.011977  -0.000041   0.001279  -0.034742   0.001545  -0.049695
    12  C    0.308281   0.029467  -0.068229  -0.203802   0.019933  -0.247466
    13  C   -0.249471  -0.019521  -0.042535  -0.060664   0.000183  -0.011160
    14  H   -0.004489  -0.001951   0.021812  -0.008305  -0.000221  -0.021073
    15  O    0.000948   0.000161   0.000278   0.001768   0.000113   0.002013
    16  C   -0.273978  -0.010314  -0.006568   0.044506   0.000879  -0.025463
    17  C   -0.040878  -0.000868  -0.003556   0.006073  -0.000102  -0.002220
    18  C    0.102042   0.000647  -0.022775  -0.025554   0.000311  -0.004191
    19  O    0.000055  -0.000001  -0.000003   0.000253   0.000006  -0.000050
    20  C    0.010071   0.000439  -0.000697  -0.001149   0.000002   0.000763
    21  C    0.002288  -0.000403   0.000800   0.001359   0.000097   0.001068
    22  H    0.013249   0.000927  -0.010910  -0.002517   0.000092  -0.007706
    23  H   -0.000675  -0.000102  -0.000246   0.000467   0.000072  -0.000241
    24  H    0.000044   0.000002  -0.000017   0.000017   0.000001  -0.000012
    25  C   -0.010796  -0.000469   0.002360   0.000364  -0.000014   0.001666
    26  H   -0.000150  -0.000007   0.000024  -0.000002   0.000000   0.000019
    27  O   -0.000074  -0.000009   0.000022  -0.000016   0.000001  -0.000050
    28  C   -0.000425  -0.000025  -0.000111   0.000012   0.000000  -0.000036
    29  H   -0.000003  -0.000001   0.000007   0.000003   0.000000   0.000004
    30  H    0.000008   0.000000   0.000014   0.000001   0.000000  -0.000006
    31  H   -0.000037  -0.000001  -0.000016  -0.000001   0.000000   0.000000
               7          8          9         10         11         12
     1  C    0.422772  -0.003924   0.007239  -0.046040   0.011977   0.308281
     2  H   -0.010073   0.003002  -0.004961   0.024044  -0.000041   0.029467
     3  H   -0.055352  -0.002458   0.002687   0.089309   0.001279  -0.068229
     4  C   -0.006812   0.404811   0.402344   0.007369  -0.034742  -0.203802
     5  H    0.002983  -0.025706  -0.057661  -0.024267   0.001545   0.019933
     6  N   -0.047781  -0.093894  -0.041307   0.282134  -0.049695  -0.247466
     7  H    0.509137  -0.000793  -0.001471  -0.015739  -0.000854   0.001493
     8  H   -0.000793   0.524707  -0.030105   0.049791  -0.013424   0.001643
     9  H   -0.001471  -0.030105   0.527452  -0.036397   0.005280   0.012325
    10  C   -0.015739   0.049791  -0.036397  15.742629   0.340223  -2.200143
    11  H   -0.000854  -0.013424   0.005280   0.340223   0.445401   0.203770
    12  C    0.001493   0.001643   0.012325  -2.200143   0.203770  16.744158
    13  C    0.010223   0.018286   0.002063  -4.677778  -0.039738   1.288255
    14  H   -0.024889  -0.002981   0.002209   0.015063   0.009703   0.539729
    15  O    0.000232   0.000677  -0.000104   0.076126  -0.007155  -0.579620
    16  C   -0.005410   0.008761   0.000053  -0.303568  -0.124553  -5.815704
    17  C   -0.000783   0.001900   0.000167  -0.374569  -0.041531  -4.575738
    18  C    0.010721  -0.004155  -0.000197  -2.776298   0.024769   1.666825
    19  O   -0.000004  -0.000125   0.000005  -0.002194   0.001089   0.018910
    20  C   -0.001008  -0.000350   0.000011  -0.147878   0.011541   1.063859
    21  C    0.001184  -0.000188  -0.000010  -0.059994  -0.003466  -0.754395
    22  H    0.004346   0.000287  -0.000331  -0.217180  -0.000482  -0.045623
    23  H    0.000047   0.000056  -0.000023  -0.037212   0.001963   0.068357
    24  H   -0.000009  -0.000001   0.000000   0.000199  -0.000049   0.000135
    25  C   -0.000717   0.000058   0.000044  -0.116536  -0.005244  -0.983292
    26  H    0.000003   0.000001   0.000001  -0.002186  -0.000047  -0.012008
    27  O   -0.000016  -0.000003   0.000000  -0.003840  -0.000040  -0.010274
    28  C    0.000069   0.000001   0.000000  -0.002222  -0.000086  -0.039955
    29  H   -0.000008   0.000000   0.000000   0.000949  -0.000002   0.002231
    30  H    0.000006   0.000000   0.000000   0.000177   0.000003  -0.000028
    31  H   -0.000014   0.000000   0.000000  -0.001044  -0.000003  -0.003418
              13         14         15         16         17         18
     1  C   -0.249471  -0.004489   0.000948  -0.273978  -0.040878   0.102042
     2  H   -0.019521  -0.001951   0.000161  -0.010314  -0.000868   0.000647
     3  H   -0.042535   0.021812   0.000278  -0.006568  -0.003556  -0.022775
     4  C   -0.060664  -0.008305   0.001768   0.044506   0.006073  -0.025554
     5  H    0.000183  -0.000221   0.000113   0.000879  -0.000102   0.000311
     6  N   -0.011160  -0.021073   0.002013  -0.025463  -0.002220  -0.004191
     7  H    0.010223  -0.024889   0.000232  -0.005410  -0.000783   0.010721
     8  H    0.018286  -0.002981   0.000677   0.008761   0.001900  -0.004155
     9  H    0.002063   0.002209  -0.000104   0.000053   0.000167  -0.000197
    10  C   -4.677778   0.015063   0.076126  -0.303568  -0.374569  -2.776298
    11  H   -0.039738   0.009703  -0.007155  -0.124553  -0.041531   0.024769
    12  C    1.288255   0.539729  -0.579620  -5.815704  -4.575738   1.666825
    13  C   12.056291   0.042626   0.439852   2.045518  -3.152688  -0.377638
    14  H    0.042626   0.659425  -0.012616   0.019503   0.004904  -0.242395
    15  O    0.439852  -0.012616   8.136100   0.155766  -0.083288   0.018433
    16  C    2.045518   0.019503   0.155766  20.940597   1.317761  -6.903855
    17  C   -3.152688   0.004904  -0.083288   1.317761  20.475434  -5.738962
    18  C   -0.377638  -0.242395   0.018433  -6.903855  -5.738962  18.370660
    19  O   -0.027398   0.003207   0.002566  -0.091809   0.376916   0.003613
    20  C    0.927278   0.030100  -0.075350  -2.403631  -2.181168   0.650128
    21  C   -1.066264  -0.133156   0.027032  -4.380757  -0.868651   4.287735
    22  H   -0.078891  -0.074409   0.003896  -0.555206  -0.018256   1.130929
    23  H    0.048603  -0.000492   0.204033  -0.152260  -0.046683   0.065455
    24  H   -0.014340  -0.000021  -0.000749  -0.090931  -0.110462   0.010452
    25  C   -0.985021   0.051503   0.008465   0.690384   1.148803  -2.375255
    26  H   -0.003657   0.000974  -0.000060   0.100239   0.019627  -0.064708
    27  O    0.001895   0.004247   0.000113   0.077570   0.053559  -0.113648
    28  C   -0.041266  -0.001545   0.000156  -0.089655   0.085893   0.087162
    29  H    0.001750   0.000793   0.000016   0.012522   0.010143   0.021980
    30  H    0.000489  -0.000884  -0.000003  -0.015882   0.002704   0.003327
    31  H   -0.001605   0.000595   0.000010   0.000435  -0.001985  -0.010428
              19         20         21         22         23         24
     1  C    0.000055   0.010071   0.002288   0.013249  -0.000675   0.000044
     2  H   -0.000001   0.000439  -0.000403   0.000927  -0.000102   0.000002
     3  H   -0.000003  -0.000697   0.000800  -0.010910  -0.000246  -0.000017
     4  C    0.000253  -0.001149   0.001359  -0.002517   0.000467   0.000017
     5  H    0.000006   0.000002   0.000097   0.000092   0.000072   0.000001
     6  N   -0.000050   0.000763   0.001068  -0.007706  -0.000241  -0.000012
     7  H   -0.000004  -0.001008   0.001184   0.004346   0.000047  -0.000009
     8  H   -0.000125  -0.000350  -0.000188   0.000287   0.000056  -0.000001
     9  H    0.000005   0.000011  -0.000010  -0.000331  -0.000023   0.000000
    10  C   -0.002194  -0.147878  -0.059994  -0.217180  -0.037212   0.000199
    11  H    0.001089   0.011541  -0.003466  -0.000482   0.001963  -0.000049
    12  C    0.018910   1.063859  -0.754395  -0.045623   0.068357   0.000135
    13  C   -0.027398   0.927278  -1.066264  -0.078891   0.048603  -0.014340
    14  H    0.003207   0.030100  -0.133156  -0.074409  -0.000492  -0.000021
    15  O    0.002566  -0.075350   0.027032   0.003896   0.204033  -0.000749
    16  C   -0.091809  -2.403631  -4.380757  -0.555206  -0.152260  -0.090931
    17  C    0.376916  -2.181168  -0.868651  -0.018256  -0.046683  -0.110462
    18  C    0.003613   0.650128   4.287735   1.130929   0.065455   0.010452
    19  O    8.480673  -0.240804  -0.057851  -0.003781   0.076693  -0.017262
    20  C   -0.240804  11.364019  -1.412283  -0.011847   0.043442   0.467938
    21  C   -0.057851  -1.412283  12.513318   0.323467   0.023520   0.034954
    22  H   -0.003781  -0.011847   0.323467   0.625985   0.003251   0.001885
    23  H    0.076693   0.043442   0.023520   0.003251   0.298881   0.000133
    24  H   -0.017262   0.467938   0.034954   0.001885   0.000133   0.455907
    25  C    0.008246  -1.405414  -1.540098  -0.238925  -0.003438   0.032440
    26  H    0.002652  -0.071814  -0.216907  -0.009046   0.000042  -0.011060
    27  O    0.000294   0.026116  -0.125036  -0.048874   0.000397  -0.000686
    28  C   -0.001105  -0.289306   0.273731   0.016471   0.000246   0.004311
    29  H    0.000037   0.005801  -0.055931  -0.004847   0.000006   0.000630
    30  H    0.000037   0.015148  -0.010556   0.002459   0.000033   0.000580
    31  H   -0.000028  -0.010443   0.037683  -0.000897  -0.000011   0.000176
              25         26         27         28         29         30
     1  C   -0.010796  -0.000150  -0.000074  -0.000425  -0.000003   0.000008
     2  H   -0.000469  -0.000007  -0.000009  -0.000025  -0.000001   0.000000
     3  H    0.002360   0.000024   0.000022  -0.000111   0.000007   0.000014
     4  C    0.000364  -0.000002  -0.000016   0.000012   0.000003   0.000001
     5  H   -0.000014   0.000000   0.000001   0.000000   0.000000   0.000000
     6  N    0.001666   0.000019  -0.000050  -0.000036   0.000004  -0.000006
     7  H   -0.000717   0.000003  -0.000016   0.000069  -0.000008   0.000006
     8  H    0.000058   0.000001  -0.000003   0.000001   0.000000   0.000000
     9  H    0.000044   0.000001   0.000000   0.000000   0.000000   0.000000
    10  C   -0.116536  -0.002186  -0.003840  -0.002222   0.000949   0.000177
    11  H   -0.005244  -0.000047  -0.000040  -0.000086  -0.000002   0.000003
    12  C   -0.983292  -0.012008  -0.010274  -0.039955   0.002231  -0.000028
    13  C   -0.985021  -0.003657   0.001895  -0.041266   0.001750   0.000489
    14  H    0.051503   0.000974   0.004247  -0.001545   0.000793  -0.000884
    15  O    0.008465  -0.000060   0.000113   0.000156   0.000016  -0.000003
    16  C    0.690384   0.100239   0.077570  -0.089655   0.012522  -0.015882
    17  C    1.148803   0.019627   0.053559   0.085893   0.010143   0.002704
    18  C   -2.375255  -0.064708  -0.113648   0.087162   0.021980   0.003327
    19  O    0.008246   0.002652   0.000294  -0.001105   0.000037   0.000037
    20  C   -1.405414  -0.071814   0.026116  -0.289306   0.005801   0.015148
    21  C   -1.540098  -0.216907  -0.125036   0.273731  -0.055931  -0.010556
    22  H   -0.238925  -0.009046  -0.048874   0.016471  -0.004847   0.002459
    23  H   -0.003438   0.000042   0.000397   0.000246   0.000006   0.000033
    24  H    0.032440  -0.011060  -0.000686   0.004311   0.000630   0.000580
    25  C   11.043391   0.594137   0.031598  -0.255218  -0.009877  -0.011746
    26  H    0.594137   0.468216  -0.013854  -0.012027  -0.011032  -0.007221
    27  O    0.031598  -0.013854   8.235069   0.185345  -0.038037  -0.034535
    28  C   -0.255218  -0.012027   0.185345   5.244158   0.403536   0.404319
    29  H   -0.009877  -0.011032  -0.038037   0.403536   0.564587  -0.059727
    30  H   -0.011746  -0.007221  -0.034535   0.404319  -0.059727   0.561189
    31  H    0.028842   0.003353  -0.062652   0.393757  -0.019604  -0.022129
              31
     1  C   -0.000037
     2  H   -0.000001
     3  H   -0.000016
     4  C   -0.000001
     5  H    0.000000
     6  N    0.000000
     7  H   -0.000014
     8  H    0.000000
     9  H    0.000000
    10  C   -0.001044
    11  H   -0.000003
    12  C   -0.003418
    13  C   -0.001605
    14  H    0.000595
    15  O    0.000010
    16  C    0.000435
    17  C   -0.001985
    18  C   -0.010428
    19  O   -0.000028
    20  C   -0.010443
    21  C    0.037683
    22  H   -0.000897
    23  H   -0.000011
    24  H    0.000176
    25  C    0.028842
    26  H    0.003353
    27  O   -0.062652
    28  C    0.393757
    29  H   -0.019604
    30  H   -0.022129
    31  H    0.455283
 Mulliken charges:
               1
     1  C   -0.483548
     2  H    0.230466
     3  H    0.203320
     4  C   -0.341852
     5  H    0.197665
     6  N    0.131346
     7  H    0.208518
     8  H    0.164125
     9  H    0.210689
    10  C    0.417073
    11  H    0.262609
    12  C   -0.429675
    13  C   -0.033676
    14  H    0.123035
    15  O   -0.319807
    16  C    1.835048
    17  C   -0.261496
    18  C   -1.795130
    19  O   -0.532838
    20  C   -0.363516
    21  C   -0.842288
    22  H    0.202487
    23  H    0.405687
    24  H    0.235793
    25  C    0.299758
    26  H    0.246500
    27  O   -0.164585
    28  C   -0.366186
    29  H    0.174074
    30  H    0.172221
    31  H    0.214182
 Sum of Mulliken charges =   0.00000
 Mulliken charges with hydrogens summed into heavy atoms:
               1
     1  C    0.158756
     4  C    0.230628
     6  N    0.131346
    10  C    0.679682
    12  C   -0.306640
    13  C   -0.033676
    15  O    0.085880
    16  C    1.835048
    17  C   -0.261496
    18  C   -1.592644
    19  O   -0.532838
    20  C   -0.127723
    21  C   -0.842288
    25  C    0.546257
    27  O   -0.164585
    28  C    0.194292
 Electronic spatial extent (au):  <R**2>=           5341.9747
 Charge=              0.0000 electrons
 Dipole moment (field-independent basis, Debye):
    X=              8.1962    Y=             -8.3303    Z=             -0.0850  Tot=             11.6867
 Quadrupole moment (field-independent basis, Debye-Ang):
   XX=            -38.7021   YY=           -107.6730   ZZ=            -99.0538
   XY=              2.7578   XZ=             -0.2957   YZ=              0.8630
 Traceless Quadrupole moment (field-independent basis, Debye-Ang):
   XX=             43.1075   YY=            -25.8634   ZZ=            -17.2442
   XY=              2.7578   XZ=             -0.2957   YZ=              0.8630
 Octapole moment (field-independent basis, Debye-Ang**2):
  XXX=            128.2635  YYY=            -86.0863  ZZZ=             -0.0178  XYY=             35.7085
  XXY=            -72.2568  XXZ=             -2.7297  XZZ=              9.3622  YZZ=             -3.9578
  YYZ=              1.4713  XYZ=              1.1105
 Hexadecapole moment (field-independent basis, Debye-Ang**3):
 XXXX=          -3742.1475 YYYY=          -1725.3768 ZZZZ=           -129.7188 XXXY=             47.3289
 XXXZ=              4.4912 YYYX=            109.7829 YYYZ=              6.6345 ZZZX=             -4.5289
 ZZZY=              2.6415 XXYY=           -999.7590 XXZZ=           -930.6953 YYZZ=           -290.7615
 XXYZ=              3.0947 YYXZ=             -2.7653 ZZXY=              9.1103
 N-N= 1.051312028750D+03 E-N=-3.845835555345D+03  KE= 7.435825214426D+02
 1\1\GINC-NXN33\FOpt\RwB97XD TD-FC\6-311++G(d,p)\C12H15N1O3\BTX008\10-S
 ep-2017\0\\# wb97xd 6-311++g** opt td=(nstates=1,root=1) SCRF=(PCM,sol
 vent=dichloromethane)\\Geom Opt s1\\0,1\C,0.078092333,0.1425684631,8.5
 667455471\H,0.9574417057,0.7460192414,8.7854492824\H,-0.8151218482,0.7
 180024824,8.8300183518\C,1.2450331898,0.1530753159,6.3759824311\H,1.42
 98564869,1.2295691024,6.4291142378\N,0.0732377361,-0.1953138521,7.1578
 486868\H,0.1074761535,-0.7602683889,9.1876180417\H,1.0886043525,-0.122
 9501807,5.333965629\H,2.1300791182,-0.3728107267,6.7488907471\C,-0.941
 5560827,-0.8873477793,6.6200020319\H,-0.8490907172,-1.1018089371,5.561
 3015291\C,-2.0628481978,-1.3262499797,7.2944326846\C,-3.0868668539,-2.
 0468035948,6.6443356549\H,-2.1620908205,-1.1305965297,8.3523139036\O,-
 2.9057483828,-2.3136150944,5.337746758\C,-4.2870153749,-2.4955781387,7
 .3043268585\C,-5.2431218308,-3.3588930653,6.5802654239\C,-4.60228323,-
 2.1473309893,8.6109978398\O,-5.0184394799,-3.6888313669,5.3734410431\C
 ,-6.4042028083,-3.8030016271,7.2679130153\C,-5.7696035574,-2.618672111
 1,9.2516026176\H,-3.9688791812,-1.4907316465,9.1936857642\H,-3.6715701
 817,-2.8880096983,5.0657682374\H,-7.0833401097,-4.4449261915,6.7180249
 288\C,-6.677120983,-3.4553527328,8.5846675912\H,-7.5698235124,-3.82392
 50343,9.0707249931\O,-5.9197888618,-2.1962033194,10.5145847006\C,-7.07
 29813714,-2.5964058455,11.2457596033\H,-7.9837344508,-2.2448213338,10.
 7544009601\H,-7.1038331688,-3.6831343514,11.3574071567\H,-6.9811780705
 ,-2.1298370899,12.2235607499\\Version=ES64L-G09RevD.01\State=1-A\HF=-7
 46.6605361\RMSD=7.716e-09\RMSF=8.900e-06\Dipole=1.7139813,1.8029553,2.
 6253849\PG=C01 [X(C12H15N1O3)]\\@


 THE BEST WAY TO CONVINCE A FOOL THAT HE IS WRONG 
 IS TO LET HIM HAVE HIS OWN WAY.

                                         JOSH BILLINGS
 Job cpu time:       4 days  0 hours 56 minutes 23.5 seconds.
 File lengths (MBytes):  RWF=    310 Int=      0 D2E=      0 Chk=     31 Scr=      1
 Normal termination of Gaussian 09 at Sun Sep 10 11:07:35 2017.
