 Entering Gaussian System, Link 0=g09
 Input=5_opts1_DCM.com
 Output=5_opts1_DCM.out
 Initial command:
 /share/apps/gaussian/g09_D01/g09/l1.exe "/tmp/101724.1.all.q/Gau-15584.inp" -scrdir="/tmp/101724.1.all.q/"
 Entering Link 1 = /share/apps/gaussian/g09_D01/g09/l1.exe PID=     15592.
  
 Copyright (c) 1988,1990,1992,1993,1995,1998,2003,2009,2013,
            Gaussian, Inc.  All Rights Reserved.
  
 This is part of the Gaussian(R) 09 program.  It is based on
 the Gaussian(R) 03 system (copyright 2003, Gaussian, Inc.),
 the Gaussian(R) 98 system (copyright 1998, Gaussian, Inc.),
 the Gaussian(R) 94 system (copyright 1995, Gaussian, Inc.),
 the Gaussian 92(TM) system (copyright 1992, Gaussian, Inc.),
 the Gaussian 90(TM) system (copyright 1990, Gaussian, Inc.),
 the Gaussian 88(TM) system (copyright 1988, Gaussian, Inc.),
 the Gaussian 86(TM) system (copyright 1986, Carnegie Mellon
 University), and the Gaussian 82(TM) system (copyright 1983,
 Carnegie Mellon University). Gaussian is a federally registered
 trademark of Gaussian, Inc.
  
 This software contains proprietary and confidential information,
 including trade secrets, belonging to Gaussian, Inc.
  
 This software is provided under written license and may be
 used, copied, transmitted, or stored only in accord with that
 written license.
  
 The following legend is applicable only to US Government
 contracts under FAR:
  
                    RESTRICTED RIGHTS LEGEND
  
 Use, reproduction and disclosure by the US Government is
 subject to restrictions as set forth in subparagraphs (a)
 and (c) of the Commercial Computer Software - Restricted
 Rights clause in FAR 52.227-19.
  
 Gaussian, Inc.
 340 Quinnipiac St., Bldg. 40, Wallingford CT 06492
  
  
 ---------------------------------------------------------------
 Warning -- This program may not be used in any manner that
 competes with the business of Gaussian, Inc. or will provide
 assistance to any competitor of Gaussian, Inc.  The licensee
 of this program is prohibited from giving any competitor of
 Gaussian, Inc. access to this program.  By using this program,
 the user acknowledges that Gaussian, Inc. is engaged in the
 business of creating and licensing software in the field of
 computational chemistry and represents and warrants to the
 licensee that it is not a competitor of Gaussian, Inc. and that
 it will not use this program in any manner prohibited above.
 ---------------------------------------------------------------
  

 Cite this work as:
 Gaussian 09, Revision D.01,
 M. J. Frisch, G. W. Trucks, H. B. Schlegel, G. E. Scuseria, 
 M. A. Robb, J. R. Cheeseman, G. Scalmani, V. Barone, B. Mennucci, 
 G. A. Petersson, H. Nakatsuji, M. Caricato, X. Li, H. P. Hratchian, 
 A. F. Izmaylov, J. Bloino, G. Zheng, J. L. Sonnenberg, M. Hada, 
 M. Ehara, K. Toyota, R. Fukuda, J. Hasegawa, M. Ishida, T. Nakajima, 
 Y. Honda, O. Kitao, H. Nakai, T. Vreven, J. A. Montgomery, Jr., 
 J. E. Peralta, F. Ogliaro, M. Bearpark, J. J. Heyd, E. Brothers, 
 K. N. Kudin, V. N. Staroverov, T. Keith, R. Kobayashi, J. Normand, 
 K. Raghavachari, A. Rendell, J. C. Burant, S. S. Iyengar, J. Tomasi, 
 M. Cossi, N. Rega, J. M. Millam, M. Klene, J. E. Knox, J. B. Cross, 
 V. Bakken, C. Adamo, J. Jaramillo, R. Gomperts, R. E. Stratmann, 
 O. Yazyev, A. J. Austin, R. Cammi, C. Pomelli, J. W. Ochterski, 
 R. L. Martin, K. Morokuma, V. G. Zakrzewski, G. A. Voth, 
 P. Salvador, J. J. Dannenberg, S. Dapprich, A. D. Daniels, 
 O. Farkas, J. B. Foresman, J. V. Ortiz, J. Cioslowski, 
 and D. J. Fox, Gaussian, Inc., Wallingford CT, 2013.
 
 ******************************************
 Gaussian 09:  ES64L-G09RevD.01 24-Apr-2013
                27-Jul-2017 
 ******************************************
 %chk=5_opt_DCM.chk
 %mem=14GB
 %nproc=2
 Will use up to    2 processors via shared memory.
 ----------------------------------------------------------------------
 # wb97xd 6-311++g** opt td=(nstates=1,root=1) SCRF=(PCM,solvent=dichlo
 romethane)
 ----------------------------------------------------------------------
 1/14=-1,18=20,19=15,26=3,38=1/1,3;
 2/9=110,12=2,17=6,18=5,40=1/2;
 3/5=4,6=6,7=1111,11=9,16=1,25=1,30=1,70=2201,71=1,72=9,74=-58/1,2,8,3;
 4//1;
 5/5=2,38=5,53=9/2;
 8/6=1,10=2,107=1,108=1/1;
 9/8=1,15=2,41=1,42=1,70=2/14;
 10/5=4/2;
 6/7=2,8=2,9=2,10=2/1;
 7/12=6,13=5,14=1/1,2,3,16;
 1/14=-1,18=20,19=15,26=3/3(2);
 2/9=110/2;
 99//99;
 2/9=110/2;
 3/5=4,6=6,7=1111,11=9,16=1,25=1,30=1,70=2205,71=1,72=9,74=-58/1,2,8,3;
 4/5=5,16=3,69=1/1;
 5/5=2,38=5,53=9/2;
 8/6=1,10=2,107=1,108=1/1;
 9/8=1,15=2,41=1,42=1,49=4,70=2/14;
 10/5=4/2;
 7/12=6,13=5,14=1/1,2,3,16;
 1/14=-1,18=20,19=15,26=3/3(-8);
 2/9=110/2;
 6/7=2,8=2,9=2,10=2/1;
 99//99;
 -----------
 Geom Opt s1
 -----------
 Symbolic Z-matrix:
 Charge =  0 Multiplicity = 1
 C                    -0.26519   0.95964   7.77145 
 H                     0.56468   1.64346   7.95607 
 H                    -1.00387   1.46893   7.13304 
 C                     1.29726  -0.06313   6.19329 
 H                     0.9456    0.4557    5.28884 
 N                     0.2418   -0.25001   7.16819 
 H                    -0.73601   0.73348   8.73084 
 H                     1.69745  -1.03412   5.89655 
 H                     2.10968   0.51884   6.63462 
 C                    -0.631    -1.29352   6.94424 
 H                    -0.20899  -2.13051   6.402 
 C                    -1.93051  -1.37337   7.38925 
 C                    -2.74566  -2.47932   7.21011 
 H                    -2.38024  -0.5375    7.91116 
 O                    -2.22511  -3.61279   6.6444 
 C                    -4.14757  -2.55237   7.68208 
 C                    -5.20687  -2.23376   6.74048 
 C                    -4.45464  -2.9617    8.95482 
 O                    -4.95517  -1.95168   5.55244 
 C                    -6.56266  -2.29714   7.23776 
 C                    -5.78669  -3.03099   9.39155 
 H                    -3.67203  -3.22265   9.6569 
 H                    -2.89099  -4.02125   6.08903 
 H                    -7.35477  -2.03065   6.54788 
 C                    -6.84335  -2.6859    8.51759 
 H                    -7.87183  -2.72669   8.85267 
 O                    -5.96303  -3.42491   10.66111 
 C                    -7.27718  -3.52514   11.18161 
 H                    -7.77953  -2.5532    11.1788 
 H                    -7.87001  -4.2512    10.61743 
 H                    -7.16398  -3.87075   12.2067 
 

 GradGradGradGradGradGradGradGradGradGradGradGradGradGradGradGradGradGrad
 Berny optimization.
 Initialization pass.
                           ----------------------------
                           !    Initial Parameters    !
                           ! (Angstroms and Degrees)  !
 --------------------------                            --------------------------
 ! Name  Definition              Value          Derivative Info.                !
 --------------------------------------------------------------------------------
 ! R1    R(1,2)                  1.091          estimate D2E/DX2                !
 ! R2    R(1,3)                  1.1012         estimate D2E/DX2                !
 ! R3    R(1,6)                  1.4437         estimate D2E/DX2                !
 ! R4    R(1,7)                  1.0924         estimate D2E/DX2                !
 ! R5    R(4,5)                  1.1004         estimate D2E/DX2                !
 ! R6    R(4,6)                  1.4489         estimate D2E/DX2                !
 ! R7    R(4,8)                  1.0913         estimate D2E/DX2                !
 ! R8    R(4,9)                  1.0925         estimate D2E/DX2                !
 ! R9    R(6,10)                 1.3787         estimate D2E/DX2                !
 ! R10   R(10,11)                1.0829         estimate D2E/DX2                !
 ! R11   R(10,12)                1.3759         estimate D2E/DX2                !
 ! R12   R(12,13)                1.3855         estimate D2E/DX2                !
 ! R13   R(12,14)                1.0832         estimate D2E/DX2                !
 ! R14   R(13,15)                1.3696         estimate D2E/DX2                !
 ! R15   R(13,16)                1.481          estimate D2E/DX2                !
 ! R16   R(15,23)                0.9585         estimate D2E/DX2                !
 ! R17   R(16,17)                1.4527         estimate D2E/DX2                !
 ! R18   R(16,18)                1.3717         estimate D2E/DX2                !
 ! R19   R(17,19)                1.2467         estimate D2E/DX2                !
 ! R20   R(17,20)                1.4455         estimate D2E/DX2                !
 ! R21   R(18,21)                1.4035         estimate D2E/DX2                !
 ! R22   R(18,22)                1.0833         estimate D2E/DX2                !
 ! R23   R(20,24)                1.0837         estimate D2E/DX2                !
 ! R24   R(20,25)                1.3667         estimate D2E/DX2                !
 ! R25   R(21,25)                1.414          estimate D2E/DX2                !
 ! R26   R(21,27)                1.3409         estimate D2E/DX2                !
 ! R27   R(25,26)                1.0825         estimate D2E/DX2                !
 ! R28   R(27,28)                1.417          estimate D2E/DX2                !
 ! R29   R(28,29)                1.0941         estimate D2E/DX2                !
 ! R30   R(28,30)                1.094          estimate D2E/DX2                !
 ! R31   R(28,31)                1.0877         estimate D2E/DX2                !
 ! A1    A(2,1,3)              108.5691         estimate D2E/DX2                !
 ! A2    A(2,1,6)              109.193          estimate D2E/DX2                !
 ! A3    A(2,1,7)              107.9977         estimate D2E/DX2                !
 ! A4    A(3,1,6)              112.3859         estimate D2E/DX2                !
 ! A5    A(3,1,7)              108.41           estimate D2E/DX2                !
 ! A6    A(6,1,7)              110.1751         estimate D2E/DX2                !
 ! A7    A(5,4,6)              112.3987         estimate D2E/DX2                !
 ! A8    A(5,4,8)              108.2522         estimate D2E/DX2                !
 ! A9    A(5,4,9)              108.5738         estimate D2E/DX2                !
 ! A10   A(6,4,8)              109.5914         estimate D2E/DX2                !
 ! A11   A(6,4,9)              109.7924         estimate D2E/DX2                !
 ! A12   A(8,4,9)              108.1261         estimate D2E/DX2                !
 ! A13   A(1,6,4)              115.3981         estimate D2E/DX2                !
 ! A14   A(1,6,10)             118.6681         estimate D2E/DX2                !
 ! A15   A(4,6,10)             116.7102         estimate D2E/DX2                !
 ! A16   A(6,10,11)            114.8116         estimate D2E/DX2                !
 ! A17   A(6,10,12)            126.1067         estimate D2E/DX2                !
 ! A18   A(11,10,12)           119.0226         estimate D2E/DX2                !
 ! A19   A(10,12,13)           124.0672         estimate D2E/DX2                !
 ! A20   A(10,12,14)           120.2108         estimate D2E/DX2                !
 ! A21   A(13,12,14)           115.7211         estimate D2E/DX2                !
 ! A22   A(12,13,15)           119.3671         estimate D2E/DX2                !
 ! A23   A(12,13,16)           123.7153         estimate D2E/DX2                !
 ! A24   A(15,13,16)           116.7811         estimate D2E/DX2                !
 ! A25   A(13,15,23)           109.1461         estimate D2E/DX2                !
 ! A26   A(13,16,17)           118.2206         estimate D2E/DX2                !
 ! A27   A(13,16,18)           121.4859         estimate D2E/DX2                !
 ! A28   A(17,16,18)           120.2397         estimate D2E/DX2                !
 ! A29   A(16,17,19)           121.3379         estimate D2E/DX2                !
 ! A30   A(16,17,20)           116.8299         estimate D2E/DX2                !
 ! A31   A(19,17,20)           121.8094         estimate D2E/DX2                !
 ! A32   A(16,18,21)           121.0569         estimate D2E/DX2                !
 ! A33   A(16,18,22)           120.7633         estimate D2E/DX2                !
 ! A34   A(21,18,22)           118.1698         estimate D2E/DX2                !
 ! A35   A(17,20,24)           117.1159         estimate D2E/DX2                !
 ! A36   A(17,20,25)           121.8202         estimate D2E/DX2                !
 ! A37   A(24,20,25)           121.0617         estimate D2E/DX2                !
 ! A38   A(18,21,25)           120.3212         estimate D2E/DX2                !
 ! A39   A(18,21,27)           115.7167         estimate D2E/DX2                !
 ! A40   A(25,21,27)           123.9595         estimate D2E/DX2                !
 ! A41   A(20,25,21)           119.652          estimate D2E/DX2                !
 ! A42   A(20,25,26)           119.7181         estimate D2E/DX2                !
 ! A43   A(21,25,26)           120.6299         estimate D2E/DX2                !
 ! A44   A(21,27,28)           119.3745         estimate D2E/DX2                !
 ! A45   A(27,28,29)           111.2252         estimate D2E/DX2                !
 ! A46   A(27,28,30)           111.1037         estimate D2E/DX2                !
 ! A47   A(27,28,31)           105.792          estimate D2E/DX2                !
 ! A48   A(29,28,30)           109.8421         estimate D2E/DX2                !
 ! A49   A(29,28,31)           109.4192         estimate D2E/DX2                !
 ! A50   A(30,28,31)           109.3615         estimate D2E/DX2                !
 ! D1    D(2,1,6,4)            -39.1014         estimate D2E/DX2                !
 ! D2    D(2,1,6,10)           175.139          estimate D2E/DX2                !
 ! D3    D(3,1,6,4)             81.4325         estimate D2E/DX2                !
 ! D4    D(3,1,6,10)           -64.3272         estimate D2E/DX2                !
 ! D5    D(7,1,6,4)           -157.5554         estimate D2E/DX2                !
 ! D6    D(7,1,6,10)            56.6849         estimate D2E/DX2                !
 ! D7    D(5,4,6,1)            -66.9307         estimate D2E/DX2                !
 ! D8    D(5,4,6,10)            79.5193         estimate D2E/DX2                !
 ! D9    D(8,4,6,1)            172.6541         estimate D2E/DX2                !
 ! D10   D(8,4,6,10)           -40.8959         estimate D2E/DX2                !
 ! D11   D(9,4,6,1)             54.0311         estimate D2E/DX2                !
 ! D12   D(9,4,6,10)          -159.5189         estimate D2E/DX2                !
 ! D13   D(1,6,10,11)          174.2403         estimate D2E/DX2                !
 ! D14   D(1,6,10,12)           -8.6018         estimate D2E/DX2                !
 ! D15   D(4,6,10,11)           28.9209         estimate D2E/DX2                !
 ! D16   D(4,6,10,12)         -153.9212         estimate D2E/DX2                !
 ! D17   D(6,10,12,13)        -175.8314         estimate D2E/DX2                !
 ! D18   D(6,10,12,14)           4.5356         estimate D2E/DX2                !
 ! D19   D(11,10,12,13)          1.2183         estimate D2E/DX2                !
 ! D20   D(11,10,12,14)       -178.4146         estimate D2E/DX2                !
 ! D21   D(10,12,13,15)          4.9445         estimate D2E/DX2                !
 ! D22   D(10,12,13,16)       -179.4429         estimate D2E/DX2                !
 ! D23   D(14,12,13,15)       -175.4076         estimate D2E/DX2                !
 ! D24   D(14,12,13,16)          0.205          estimate D2E/DX2                !
 ! D25   D(12,13,15,23)       -143.6367         estimate D2E/DX2                !
 ! D26   D(16,13,15,23)         40.4507         estimate D2E/DX2                !
 ! D27   D(12,13,16,17)         95.8953         estimate D2E/DX2                !
 ! D28   D(12,13,16,18)        -86.7683         estimate D2E/DX2                !
 ! D29   D(15,13,16,17)        -88.3875         estimate D2E/DX2                !
 ! D30   D(15,13,16,18)         88.9489         estimate D2E/DX2                !
 ! D31   D(13,16,17,19)          2.5172         estimate D2E/DX2                !
 ! D32   D(13,16,17,20)       -179.1887         estimate D2E/DX2                !
 ! D33   D(18,16,17,19)       -174.8536         estimate D2E/DX2                !
 ! D34   D(18,16,17,20)          3.4405         estimate D2E/DX2                !
 ! D35   D(13,16,18,21)       -179.8273         estimate D2E/DX2                !
 ! D36   D(13,16,18,22)          1.3417         estimate D2E/DX2                !
 ! D37   D(17,16,18,21)         -2.544          estimate D2E/DX2                !
 ! D38   D(17,16,18,22)        178.625          estimate D2E/DX2                !
 ! D39   D(16,17,20,24)        178.1598         estimate D2E/DX2                !
 ! D40   D(16,17,20,25)         -2.3712         estimate D2E/DX2                !
 ! D41   D(19,17,20,24)         -3.5547         estimate D2E/DX2                !
 ! D42   D(19,17,20,25)        175.9143         estimate D2E/DX2                !
 ! D43   D(16,18,21,25)          0.4225         estimate D2E/DX2                !
 ! D44   D(16,18,21,27)       -179.0158         estimate D2E/DX2                !
 ! D45   D(22,18,21,25)        179.2831         estimate D2E/DX2                !
 ! D46   D(22,18,21,27)         -0.1553         estimate D2E/DX2                !
 ! D47   D(17,20,25,21)          0.3618         estimate D2E/DX2                !
 ! D48   D(17,20,25,26)       -179.6431         estimate D2E/DX2                !
 ! D49   D(24,20,25,21)        179.8101         estimate D2E/DX2                !
 ! D50   D(24,20,25,26)         -0.1948         estimate D2E/DX2                !
 ! D51   D(18,21,25,20)          0.6968         estimate D2E/DX2                !
 ! D52   D(18,21,25,26)       -179.2982         estimate D2E/DX2                !
 ! D53   D(27,21,25,20)       -179.9133         estimate D2E/DX2                !
 ! D54   D(27,21,25,26)          0.0917         estimate D2E/DX2                !
 ! D55   D(18,21,27,28)       -179.8498         estimate D2E/DX2                !
 ! D56   D(25,21,27,28)          0.7348         estimate D2E/DX2                !
 ! D57   D(21,27,28,29)        -62.06           estimate D2E/DX2                !
 ! D58   D(21,27,28,30)         60.6373         estimate D2E/DX2                !
 ! D59   D(21,27,28,31)        179.2217         estimate D2E/DX2                !
 --------------------------------------------------------------------------------
 Trust Radius=3.00D-01 FncErr=1.00D-07 GrdErr=1.00D-06
 Number of steps in this run=    150 maximum allowed number of steps=    186.
 GradGradGradGradGradGradGradGradGradGradGradGradGradGradGradGradGradGrad

                          Input orientation:                          
 ---------------------------------------------------------------------
 Center     Atomic      Atomic             Coordinates (Angstroms)
 Number     Number       Type             X           Y           Z
 ---------------------------------------------------------------------
      1          6           0       -0.265194    0.959636    7.771452
      2          1           0        0.564676    1.643464    7.956070
      3          1           0       -1.003870    1.468933    7.133044
      4          6           0        1.297263   -0.063126    6.193287
      5          1           0        0.945600    0.455703    5.288840
      6          7           0        0.241800   -0.250010    7.168186
      7          1           0       -0.736008    0.733478    8.730844
      8          1           0        1.697453   -1.034115    5.896549
      9          1           0        2.109683    0.518842    6.634616
     10          6           0       -0.630997   -1.293515    6.944236
     11          1           0       -0.208990   -2.130511    6.402002
     12          6           0       -1.930512   -1.373367    7.389252
     13          6           0       -2.745658   -2.479320    7.210107
     14          1           0       -2.380242   -0.537496    7.911157
     15          8           0       -2.225114   -3.612785    6.644395
     16          6           0       -4.147570   -2.552372    7.682084
     17          6           0       -5.206866   -2.233763    6.740478
     18          6           0       -4.454636   -2.961695    8.954820
     19          8           0       -4.955174   -1.951682    5.552441
     20          6           0       -6.562657   -2.297144    7.237760
     21          6           0       -5.786693   -3.030993    9.391552
     22          1           0       -3.672034   -3.222652    9.656899
     23          1           0       -2.890991   -4.021245    6.089026
     24          1           0       -7.354773   -2.030652    6.547884
     25          6           0       -6.843348   -2.685902    8.517593
     26          1           0       -7.871833   -2.726690    8.852675
     27          8           0       -5.963031   -3.424910   10.661106
     28          6           0       -7.277177   -3.525141   11.181612
     29          1           0       -7.779529   -2.553200   11.178797
     30          1           0       -7.870013   -4.251203   10.617433
     31          1           0       -7.163983   -3.870748   12.206704
 ---------------------------------------------------------------------
                    Distance matrix (angstroms):
                    1          2          3          4          5
     1  C    0.000000
     2  H    1.091049   0.000000
     3  H    1.101177   1.779935   0.000000
     4  C    2.444978   2.560574   2.919856   0.000000
     5  H    2.807727   2.944486   2.868476   1.100398   0.000000
     6  N    1.443681   2.076115   2.123133   1.448915   2.127277
     7  H    1.092358   1.766388   1.779216   3.347830   3.840880
     8  H    3.367831   3.562898   3.884754   1.091341   1.775993
     9  H    2.669595   2.323373   3.293223   1.092467   1.780502
    10  C    2.427918   3.328556   2.793886   2.407482   2.878499
    11  H    3.380468   4.154103   3.757959   2.566406   3.043142
    12  C    2.891758   3.955820   3.000496   3.683150   4.003654
    13  C    4.277175   5.339674   4.316071   4.818415   5.092250
    14  H    2.595063   3.664853   2.554529   4.086581   4.350197
    15  O    5.100841   6.093568   5.249197   5.021028   5.333250
    16  C    5.235936   6.315487   5.133730   6.169203   6.380949
    17  C    5.973343   7.058417   5.615090   6.878574   6.869739
    18  C    5.859063   6.884656   5.903992   7.008003   7.367535
    19  O    5.949428   7.012222   5.460011   6.562796   6.378411
    20  C    7.109816   8.175771   6.715237   8.237724   8.231062
    21  C    7.002628   8.015675   6.944465   8.319830   8.620503
    22  H    5.714281   6.672452   5.958180   6.831773   7.343894
    23  H    5.876610   6.893215   5.898581   5.763597   5.950024
    24  H    7.791089   8.843064   7.274852   8.880013   8.755761
    25  C    7.557697   8.598694   7.299256   8.862895   8.997902
    26  H    8.521678   9.543418   8.229781   9.911571  10.028742
    27  O    7.748528   8.695780   7.809622   9.163780   9.573379
    28  C    8.995016   9.930421   8.982542  10.506662  10.871336
    29  H    8.967455   9.880471   8.857495  10.651006  10.948651
    30  H    9.648094  10.628920   9.591915  11.006907  11.325365
    31  H    9.518265  10.402240   9.602146  11.056756  11.503928
                    6          7          8          9         10
     6  N    0.000000
     7  H    2.089320   0.000000
     8  H    2.085859   4.132716   0.000000
     9  H    2.089215   3.540932   1.768149   0.000000
    10  C    1.378706   2.704015   2.566440   3.300277   0.000000
    11  H    2.080032   3.728765   2.256566   3.528374   1.082899
    12  C    2.455553   2.768665   3.937688   4.524722   1.375920
    13  C    3.727799   4.083308   4.853379   5.735373   2.438978
    14  H    2.740394   2.234002   4.575246   4.785899   2.136904
    15  O    4.203365   5.045860   4.753456   5.988397   2.830217
    16  C    4.983125   4.851336   6.297423   7.048600   3.807286
    17  C    5.814307   5.723168   7.058399   7.817924   4.675913
    18  C    5.709799   5.247158   7.135600   7.783815   4.630927
    19  O    5.702180   5.925681   6.724417   7.562195   4.590074
    20  C    7.106070   6.735266   8.463067   9.138000   6.023124
    21  C    7.001425   6.333814   8.497941   9.085966   5.965684
    22  H    5.508937   5.012863   6.910956   7.520720   4.508660
    23  H    5.020078   5.850688   5.478486   6.776194   3.644100
    24  H    7.827093   7.497585   9.130176   9.802212   6.775665
    25  C    7.612739   7.002659   9.085348   9.693954   6.558010
    26  H    8.648843   7.931431  10.157496  10.727718   7.624030
    27  O    7.796179   6.952688   9.332734   9.845533   6.840216
    28  C    9.130667   8.181014  10.708925  11.186694   8.191900
    29  H    9.259125   8.148982  10.955499  11.308560   8.403560
    30  H    9.680308   8.905071  11.143285  11.756296   8.639655
    31  H    9.661368   8.637092  11.242313  11.675511   8.775854
                   11         12         13         14         15
    11  H    0.000000
    12  C    2.124045   0.000000
    13  C    2.685030   1.385528   0.000000
    14  H    3.087002   1.083200   2.096588   0.000000
    15  O    2.514090   2.378360   1.369576   3.329588   0.000000
    16  C    4.162810   2.528072   1.481032   2.689916   2.428397
    17  C    5.010388   3.449012   2.517617   3.498230   3.286606
    18  C    5.023271   3.368233   2.489441   3.356946   3.276088
    19  O    4.824935   3.585652   2.812156   3.767458   3.377107
    20  C    6.410565   4.725789   3.821444   4.587202   4.571353
    21  C    6.392108   4.650490   3.782980   4.473590   4.535438
    22  H    4.876454   3.405140   2.719836   3.453463   3.364664
    23  H    3.296355   3.102316   1.911930   3.964534   0.958471
    24  H    7.147970   5.528339   4.678011   5.369729   5.368972
    25  C    6.985620   5.208825   4.306188   4.990263   5.069129
    26  H    8.067242   6.266768   5.388589   5.986368   6.127569
    27  O    7.274917   5.583464   4.811967   5.360574   5.490108
    28  C    8.645746   6.899199   6.115657   6.603171   6.790976
    29  H    8.961557   7.068498   6.410602   6.625167   7.248107
    30  H    8.997692   7.347160   6.403784   7.159129   6.932351
    31  H    9.224691   7.538831   6.813490   7.241994   7.443000
                   16         17         18         19         20
    16  C    0.000000
    17  C    1.452667   0.000000
    18  C    1.371748   2.449295   0.000000
    19  O    2.355511   1.246736   3.584250   0.000000
    20  C    2.468848   1.445502   2.798870   2.354495   0.000000
    21  C    2.416213   2.828422   1.403536   4.073710   2.404054
    22  H    2.138996   3.440803   1.083273   4.484238   3.881301
    23  H    2.504878   2.997125   3.432260   2.971846   4.215833
    24  H    3.441621   2.166068   3.882136   2.599080   1.083695
    25  C    2.825442   2.457771   2.444008   3.591157   1.366709
    26  H    3.907788   3.436045   3.426791   4.472033   2.122829
    27  O    3.596080   4.166766   2.324056   5.411528   3.653862
    28  C    4.794519   5.067299   3.639067   6.289280   4.191955
    29  H    5.041639   5.139972   4.020927   6.324135   4.132568
    30  H    5.035760   5.117929   4.011473   6.279986   4.117003
    31  H    5.595449   6.032384   4.329167   7.269172   5.246735
                   21         22         23         24         25
    21  C    0.000000
    22  H    2.139842   0.000000
    23  H    4.502485   3.738649   0.000000
    24  H    3.397941   4.964817   4.909008   0.000000
    25  C    1.414006   3.412236   4.827236   2.137911   0.000000
    26  H    2.175040   4.304772   5.841440   2.462495   1.082462
    27  O    1.340908   2.509583   5.540484   4.560646   2.432229
    28  C    2.381184   3.925978   6.739375   4.869389   2.826575
    29  H    2.719177   4.431236   7.208240   4.679618   2.824190
    30  H    2.707752   4.427592   6.734242   4.664499   2.813101
    31  H    3.244564   4.372098   7.463719   5.953537   3.887957
                   26         27         28         29         30
    26  H    0.000000
    27  O    2.720562   0.000000
    28  C    2.532802   1.417022   0.000000
    29  H    2.334408   2.080276   1.094091   0.000000
    30  H    2.332062   2.078761   1.094038   1.790679   0.000000
    31  H    3.613783   2.007469   1.087691   1.780849   1.780170
                   31
    31  H    0.000000
 Stoichiometry    C12H15NO3
 Framework group  C1[X(C12H15NO3)]
 Deg. of freedom    87
 Full point group                 C1      NOp   1
 Largest Abelian subgroup         C1      NOp   1
 Largest concise Abelian subgroup C1      NOp   1
                         Standard orientation:                         
 ---------------------------------------------------------------------
 Center     Atomic      Atomic             Coordinates (Angstroms)
 Number     Number       Type             X           Y           Z
 ---------------------------------------------------------------------
      1          6           0       -3.907185   -1.410529   -1.439293
      2          1           0       -4.808906   -1.949406   -1.734083
      3          1           0       -3.673963   -0.665801   -2.216196
      4          6           0       -5.435623   -0.248804    0.074705
      5          1           0       -5.632929    0.624422   -0.565155
      6          7           0       -4.116740   -0.807215   -0.144567
      7          1           0       -3.085275   -2.128480   -1.391802
      8          1           0       -5.532959    0.061768    1.116385
      9          1           0       -6.196337   -1.006637   -0.126512
     10          6           0       -3.061208   -0.160495    0.462424
     11          1           0       -3.311082    0.352014    1.383058
     12          6           0       -1.753674   -0.163978    0.034059
     13          6           0       -0.709862    0.432968    0.722389
     14          1           0       -1.486456   -0.648693   -0.897053
     15          8           0       -0.945719    0.984666    1.953543
     16          6           0        0.693148    0.434708    0.248031
     17          6           0        1.167725    1.593231   -0.488748
     18          6           0        1.548390   -0.598154    0.536908
     19          8           0        0.435858    2.584186   -0.680397
     20          6           0        2.536102    1.555464   -0.953068
     21          6           0        2.877383   -0.585524    0.085764
     22          1           0        1.209267   -1.455986    1.104887
     23          1           0       -0.414191    1.776362    2.050300
     24          1           0        2.885682    2.403901   -1.529559
     25          6           0        3.363534    0.504510   -0.672453
     26          1           0        4.384311    0.514209   -1.032516
     27          8           0        3.612836   -1.658209    0.412090
     28          6           0        4.966586   -1.724685   -0.001305
     29          1           0        5.048105   -1.723035   -1.092353
     30          1           0        5.546931   -0.896295    0.415693
     31          1           0        5.349282   -2.665250    0.388507
 ---------------------------------------------------------------------
 Rotational constants (GHZ):      1.0146516      0.2251464      0.2074054
 Standard basis: 6-311++G(d,p) (5D, 7F)
 There are   473 symmetry adapted cartesian basis functions of A   symmetry.
 There are   457 symmetry adapted basis functions of A   symmetry.
   457 basis functions,   711 primitive gaussians,   473 cartesian basis functions
    59 alpha electrons       59 beta electrons
       nuclear repulsion energy      1046.8228745033 Hartrees.
 NAtoms=   31 NActive=   31 NUniq=   31 SFac= 1.00D+00 NAtFMM=   60 NAOKFM=F Big=F
 Integral buffers will be    131072 words long.
 Raffenetti 1 integral format.
 Two-electron integral symmetry is turned on.
 Nuclear repulsion after empirical dispersion term =     1046.8045179803 Hartrees.
 ------------------------------------------------------------------------------
 Polarizable Continuum Model (PCM)
 =================================
 Model                : PCM (using non-symmetric T matrix).
 Atomic radii         : UFF (Universal Force Field).
 Polarization charges : Total charges.
 Charge compensation  : None.
 Solution method      : On-the-fly selection.
 Cavity type          : Scaled VdW (van der Waals Surface) (Alpha=1.100).
 Cavity algorithm     : GePol (No added spheres)
                        Default sphere list used, NSphG=   31.
                        Lebedev-Laikov grids with approx.  5.0 points / Ang**2.
                        Smoothing algorithm: Karplus/York (Gamma=1.0000).
                        Polarization charges: spherical gaussians, with
                                              point-specific exponents (IZeta= 3).
                        Self-potential: point-specific (ISelfS= 7).
                        Self-field    : sphere-specific E.n sum rule (ISelfD= 2).
 1st derivatives      : Analytical E(r).r(x)/FMM algorithm (CHGder, D1EAlg=3).
                        Cavity 1st derivative terms included.
 Solvent              : Dichloromethane, Eps=   8.930000 Eps(inf)=   2.028346
 ------------------------------------------------------------------------------
 One-electron integrals computed using PRISM.
 NBasis=   457 RedAO= T EigKep=  2.10D-06  NBF=   457
 NBsUse=   455 1.00D-06 EigRej=  8.78D-07 NBFU=   455
 ExpMin= 3.60D-02 ExpMax= 8.59D+03 ExpMxC= 1.30D+03 IAcc=3 IRadAn=         5 AccDes= 0.00D+00
 Harris functional with IExCor= 4639 and IRadAn=       5 diagonalized for initial guess.
 HarFok:  IExCor= 4639 AccDes= 0.00D+00 IRadAn=         5 IDoV= 1 UseB2=F ITyADJ=14
 ICtDFT=  3500011 ScaDFX=  1.000000  1.000000  1.000000  1.000000
 FoFCou: FMM=F IPFlag=           0 FMFlag=      100000 FMFlg1=           0
         NFxFlg=           0 DoJE=T BraDBF=F KetDBF=T FulRan=T
         wScrn=  0.000000 ICntrl=     500 IOpCl=  0 I1Cent=   200000004 NGrid=           0
         NMat0=    1 NMatS0=      1 NMatT0=    0 NMatD0=    1 NMtDS0=    0 NMtDT0=    0
 Petite list used in FoFCou.
 Requested convergence on RMS density matrix=1.00D-08 within 128 cycles.
 Requested convergence on MAX density matrix=1.00D-06.
 Requested convergence on             energy=1.00D-06.
 No special actions if energy rises.
 Inv3:  Mode=1 IEnd=    17598252.
 Iteration    1 A*A^-1 deviation from unit magnitude is 4.77D-15 for   2409.
 Iteration    1 A*A^-1 deviation from orthogonality  is 2.72D-15 for   2388   2035.
 Iteration    1 A^-1*A deviation from unit magnitude is 5.11D-15 for   2409.
 Iteration    1 A^-1*A deviation from orthogonality  is 1.85D-12 for   2345   2339.
 Error on total polarization charges =  0.01492
 SCF Done:  E(RwB97XD) =  -746.607095201     A.U. after   20 cycles
            NFock= 20  Conv=0.38D-08     -V/T= 2.0041
 DoSCS=F DFT=T ScalE2(SS,OS)=  1.000000  1.000000
 ExpMin= 3.60D-02 ExpMax= 8.59D+03 ExpMxC= 1.30D+03 IAcc=3 IRadAn=         5 AccDes= 0.00D+00
 HarFok:  IExCor=  205 AccDes= 0.00D+00 IRadAn=         5 IDoV=-2 UseB2=F ITyADJ=14
 ICtDFT= 12500011 ScaDFX=  1.000000  1.000000  1.000000  1.000000
 Range of M.O.s used for correlation:    17   455
 NBasis=   457 NAE=    59 NBE=    59 NFC=    16 NFV=     0
 NROrb=    439 NOA=    43 NOB=    43 NVA=   396 NVB=   396

 **** Warning!!: The largest alpha MO coefficient is  0.10521043D+03

 Would need an additional         31031300000 words for in-memory AO integral storage.
 NEqPCM:  Using equilibrium solvation (IEInf=0, Eps=   8.9300, EpsInf=   2.0283)
 Orbital symmetries:
       Occupied  (A) (A) (A) (A) (A) (A) (A) (A) (A) (A) (A) (A)
                 (A) (A) (A) (A) (A) (A) (A) (A) (A) (A) (A) (A)
                 (A) (A) (A) (A) (A) (A) (A) (A) (A) (A) (A) (A)
                 (A) (A) (A) (A) (A) (A) (A) (A) (A) (A) (A) (A)
                 (A) (A) (A) (A) (A) (A) (A) (A) (A) (A) (A)
       Virtual   (A) (A) (A) (A) (A) (A) (A) (A) (A) (A) (A) (A)
                 (A) (A) (A) (A) (A) (A) (A) (A) (A) (A) (A) (A)
                 (A) (A) (A) (A) (A) (A) (A) (A) (A) (A) (A) (A)
                 (A) (A) (A) (A) (A) (A) (A) (A) (A) (A) (A) (A)
                 (A) (A) (A) (A) (A) (A) (A) (A) (A) (A) (A) (A)
                 (A) (A) (A) (A) (A) (A) (A) (A) (A) (A) (A) (A)
                 (A) (A) (A) (A) (A) (A) (A) (A) (A) (A) (A) (A)
                 (A) (A) (A) (A) (A) (A) (A) (A) (A) (A) (A) (A)
                 (A) (A) (A) (A) (A) (A) (A) (A) (A) (A) (A) (A)
                 (A) (A) (A) (A) (A) (A) (A) (A) (A) (A) (A) (A)
                 (A) (A) (A) (A) (A) (A) (A) (A) (A) (A) (A) (A)
                 (A) (A) (A) (A) (A) (A) (A) (A) (A) (A) (A) (A)
                 (A) (A) (A) (A) (A) (A) (A) (A) (A) (A) (A) (A)
                 (A) (A) (A) (A) (A) (A) (A) (A) (A) (A) (A) (A)
                 (A) (A) (A) (A) (A) (A) (A) (A) (A) (A) (A) (A)
                 (A) (A) (A) (A) (A) (A) (A) (A) (A) (A) (A) (A)
                 (A) (A) (A) (A) (A) (A) (A) (A) (A) (A) (A) (A)
                 (A) (A) (A) (A) (A) (A) (A) (A) (A) (A) (A) (A)
                 (A) (A) (A) (A) (A) (A) (A) (A) (A) (A) (A) (A)
                 (A) (A) (A) (A) (A) (A) (A) (A) (A) (A) (A) (A)
                 (A) (A) (A) (A) (A) (A) (A) (A) (A) (A) (A) (A)
                 (A) (A) (A) (A) (A) (A) (A) (A) (A) (A) (A) (A)
                 (A) (A) (A) (A) (A) (A) (A) (A) (A) (A) (A) (A)
                 (A) (A) (A) (A) (A) (A) (A) (A) (A) (A) (A) (A)
                 (A) (A) (A) (A) (A) (A) (A) (A) (A) (A) (A) (A)
                 (A) (A) (A) (A) (A) (A) (A) (A) (A) (A) (A) (A)
                 (A) (A) (A) (A) (A) (A) (A) (A) (A) (A) (A) (A)
                 (A) (A) (A) (A) (A) (A) (A) (A) (A) (A) (A) (A)
                 (A) (A) (A) (A) (A) (A) (A) (A) (A) (A) (A) (A)
                 (A) (A) (A) (A) (A) (A) (A) (A) (A) (A) (A) (A)
                 (A) (A) (A) (A) (A) (A) (A) (A) (A) (A) (A) (A)
                 (A) (A) (A) (A) (A) (A) (A) (A) (A) (A) (A) (A)
                 (A) (A) (A) (A) (A) (A) (A) (A) (A) (A) (A) (A)
     8 initial guesses have been made.
 Convergence on wavefunction:    0.000001000000000
 Iteration     1 Dimension     8 NMult     0 NNew      8
 CISAX will form     8 AO SS matrices at one time.
 Iteration     2 Dimension    12 NMult     8 NNew      4
 Iteration     3 Dimension    16 NMult    12 NNew      4
 Iteration     4 Dimension    20 NMult    16 NNew      4
 Iteration     5 Dimension    24 NMult    20 NNew      4
 Iteration     6 Dimension    28 NMult    24 NNew      4
 Iteration     7 Dimension    32 NMult    28 NNew      4
 Iteration     8 Dimension    36 NMult    32 NNew      4
 Iteration     9 Dimension    40 NMult    36 NNew      4
 Iteration    10 Dimension    44 NMult    40 NNew      4
 Iteration    11 Dimension    48 NMult    44 NNew      4
 ***********************************************************************
 Excited states from <AA,BB:AA,BB> singles matrix:
 ***********************************************************************
 
 Ground to excited state transition densities written to RWF  633
 Ground to excited state transition electric dipole moments (Au):
       state          X           Y           Z        Dip. S.      Osc.
         1         0.0294     -0.0110     -0.0258      0.0017      0.0001
 Ground to excited state transition velocity dipole moments (Au):
       state          X           Y           Z        Dip. S.      Osc.
         1        -0.0022     -0.0002      0.0037      0.0000      0.0002
 Ground to excited state transition magnetic dipole moments (Au):
       state          X           Y           Z
         1        -0.0832     -0.0099     -0.0156
 Ground to excited state transition velocity quadrupole moments (Au):
       state          XX          YY          ZZ          XY          XZ          YZ
         1        -0.0196     -0.0009      0.0033     -0.0026      0.0029      0.0038
 <0|del|b> * <b|rxdel|0> + <0|del|b> * <b|delr+rdel|0>
 Rotatory Strengths (R) in cgs (10**-40 erg-esu-cm/Gauss)
       state          XX          YY          ZZ    R(velocity)    E-M Angle
         1        -0.4630      0.8992      1.3681      0.6014       69.73
 1/2[<0|r|b>*<b|rxdel|0> + (<0|rxdel|b>*<b|r|0>)*]
 Rotatory Strengths (R) in cgs (10**-40 erg-esu-cm/Gauss)
       state          XX          YY          ZZ     R(length)
         1         1.7278     -0.0769     -0.2859      0.4550
  1/2[<0|del|b>*<b|r|0> + (<0|r|b>*<b|del|0>)*] (Au)
       state          X           Y           Z        Dip. S.   Osc.(frdel)
         1        -0.0001      0.0000     -0.0001      0.0002      0.0001

 Excitation energies and oscillator strengths:
 
 Excited State   1:      Singlet-A      1.3534 eV  916.06 nm  f=0.0001  <S**2>=0.000
      59 -> 60         0.69191
 This state for optimization and/or second-order correction.
 Total Energy, E(TD-HF/TD-KS) =  -746.557356829    
 Copying the excited state density for this state as the 1-particle RhoCI density.
 SavETr:  write IOETrn=   770 NScale= 10 NData=  16 NLR=1 NState=    1 LETran=      28.
          IDoAtm=1111111111111111111111111111111
 NEqPCM:  Using equilibrium solvation (IEInf=0, Eps=   8.9300, EpsInf=   2.0283)
          Differentiating once with respect to electric field.
                with respect to dipole field.
          Differentiating once with respect to nuclear coordinates.
          There are     1 degrees of freedom in the 1st order CPHF.  IDoFFX=0 NUNeed=     1.
 LinEq1:  Iter=  0 NonCon=     1 RMS=6.05D-03 Max=1.55D-01 NDo=     1
 AX will form     1 AO Fock derivatives at one time.
 LinEq1:  Iter=  1 NonCon=     1 RMS=2.00D-03 Max=8.17D-02 NDo=     1
 LinEq1:  Iter=  2 NonCon=     1 RMS=1.61D-03 Max=1.03D-01 NDo=     1
 LinEq1:  Iter=  3 NonCon=     1 RMS=6.02D-04 Max=3.48D-02 NDo=     1
 LinEq1:  Iter=  4 NonCon=     1 RMS=3.01D-04 Max=1.11D-02 NDo=     1
 LinEq1:  Iter=  5 NonCon=     1 RMS=1.32D-04 Max=5.05D-03 NDo=     1
 LinEq1:  Iter=  6 NonCon=     1 RMS=7.46D-05 Max=3.23D-03 NDo=     1
 LinEq1:  Iter=  7 NonCon=     1 RMS=3.19D-05 Max=1.66D-03 NDo=     1
 LinEq1:  Iter=  8 NonCon=     1 RMS=1.68D-05 Max=1.13D-03 NDo=     1
 LinEq1:  Iter=  9 NonCon=     1 RMS=9.69D-06 Max=7.36D-04 NDo=     1
 LinEq1:  Iter= 10 NonCon=     1 RMS=5.10D-06 Max=2.98D-04 NDo=     1
 LinEq1:  Iter= 11 NonCon=     1 RMS=3.28D-06 Max=1.56D-04 NDo=     1
 LinEq1:  Iter= 12 NonCon=     1 RMS=1.36D-06 Max=3.57D-05 NDo=     1
 LinEq1:  Iter= 13 NonCon=     1 RMS=7.52D-07 Max=3.15D-05 NDo=     1
 LinEq1:  Iter= 14 NonCon=     1 RMS=3.22D-07 Max=8.07D-06 NDo=     1
 LinEq1:  Iter= 15 NonCon=     1 RMS=1.73D-07 Max=5.62D-06 NDo=     1
 LinEq1:  Iter= 16 NonCon=     1 RMS=6.69D-08 Max=1.91D-06 NDo=     1
 LinEq1:  Iter= 17 NonCon=     1 RMS=3.40D-08 Max=9.12D-07 NDo=     1
 LinEq1:  Iter= 18 NonCon=     1 RMS=1.33D-08 Max=4.63D-07 NDo=     1
 LinEq1:  Iter= 19 NonCon=     1 RMS=4.60D-09 Max=2.04D-07 NDo=     1
 LinEq1:  Iter= 20 NonCon=     1 RMS=2.97D-09 Max=1.59D-07 NDo=     1
 LinEq1:  Iter= 21 NonCon=     1 RMS=1.07D-09 Max=6.25D-08 NDo=     1
 LinEq1:  Iter= 22 NonCon=     1 RMS=5.41D-10 Max=2.43D-08 NDo=     1
 LinEq1:  Iter= 23 NonCon=     1 RMS=2.75D-10 Max=1.43D-08 NDo=     1
 LinEq1:  Iter= 24 NonCon=     1 RMS=1.00D-10 Max=4.65D-09 NDo=     1
 LinEq1:  Iter= 25 NonCon=     1 RMS=4.92D-11 Max=1.54D-09 NDo=     1
 LinEq1:  Iter= 26 NonCon=     0 RMS=1.74D-11 Max=5.26D-10 NDo=     1
 Linear equations converged to 1.000D-10 1.000D-09 after    26 iterations.
 End of Minotr F.D. properties file   721 does not exist.
 End of Minotr F.D. properties file   722 does not exist.
 End of Minotr F.D. properties file   788 does not exist.

 **********************************************************************

            Population analysis using the SCF density.

 **********************************************************************

 Orbital symmetries:
       Occupied  (A) (A) (A) (A) (A) (A) (A) (A) (A) (A) (A) (A)
                 (A) (A) (A) (A) (A) (A) (A) (A) (A) (A) (A) (A)
                 (A) (A) (A) (A) (A) (A) (A) (A) (A) (A) (A) (A)
                 (A) (A) (A) (A) (A) (A) (A) (A) (A) (A) (A) (A)
                 (A) (A) (A) (A) (A) (A) (A) (A) (A) (A) (A)
       Virtual   (A) (A) (A) (A) (A) (A) (A) (A) (A) (A) (A) (A)
                 (A) (A) (A) (A) (A) (A) (A) (A) (A) (A) (A) (A)
                 (A) (A) (A) (A) (A) (A) (A) (A) (A) (A) (A) (A)
                 (A) (A) (A) (A) (A) (A) (A) (A) (A) (A) (A) (A)
                 (A) (A) (A) (A) (A) (A) (A) (A) (A) (A) (A) (A)
                 (A) (A) (A) (A) (A) (A) (A) (A) (A) (A) (A) (A)
                 (A) (A) (A) (A) (A) (A) (A) (A) (A) (A) (A) (A)
                 (A) (A) (A) (A) (A) (A) (A) (A) (A) (A) (A) (A)
                 (A) (A) (A) (A) (A) (A) (A) (A) (A) (A) (A) (A)
                 (A) (A) (A) (A) (A) (A) (A) (A) (A) (A) (A) (A)
                 (A) (A) (A) (A) (A) (A) (A) (A) (A) (A) (A) (A)
                 (A) (A) (A) (A) (A) (A) (A) (A) (A) (A) (A) (A)
                 (A) (A) (A) (A) (A) (A) (A) (A) (A) (A) (A) (A)
                 (A) (A) (A) (A) (A) (A) (A) (A) (A) (A) (A) (A)
                 (A) (A) (A) (A) (A) (A) (A) (A) (A) (A) (A) (A)
                 (A) (A) (A) (A) (A) (A) (A) (A) (A) (A) (A) (A)
                 (A) (A) (A) (A) (A) (A) (A) (A) (A) (A) (A) (A)
                 (A) (A) (A) (A) (A) (A) (A) (A) (A) (A) (A) (A)
                 (A) (A) (A) (A) (A) (A) (A) (A) (A) (A) (A) (A)
                 (A) (A) (A) (A) (A) (A) (A) (A) (A) (A) (A) (A)
                 (A) (A) (A) (A) (A) (A) (A) (A) (A) (A) (A) (A)
                 (A) (A) (A) (A) (A) (A) (A) (A) (A) (A) (A) (A)
                 (A) (A) (A) (A) (A) (A) (A) (A) (A) (A) (A) (A)
                 (A) (A) (A) (A) (A) (A) (A) (A) (A) (A) (A) (A)
                 (A) (A) (A) (A) (A) (A) (A) (A) (A) (A) (A) (A)
                 (A) (A) (A) (A) (A) (A) (A) (A) (A) (A) (A) (A)
                 (A) (A) (A) (A) (A) (A) (A) (A) (A) (A) (A) (A)
                 (A) (A) (A) (A) (A) (A) (A) (A) (A) (A) (A) (A)
                 (A) (A) (A) (A) (A) (A) (A) (A) (A) (A) (A) (A)
                 (A) (A) (A) (A) (A) (A) (A) (A) (A) (A) (A) (A)
                 (A) (A) (A) (A) (A) (A) (A) (A) (A) (A) (A) (A)
                 (A) (A) (A) (A) (A) (A) (A) (A) (A) (A) (A) (A)
                 (A) (A) (A) (A) (A) (A) (A) (A) (A) (A) (A) (A)
 The electronic state is 1-A.
 Alpha  occ. eigenvalues --  -19.31963 -19.26438 -19.15956 -14.52778 -10.42662
 Alpha  occ. eigenvalues --  -10.39700 -10.33676 -10.33481 -10.32689 -10.32257
 Alpha  occ. eigenvalues --  -10.32136 -10.31781 -10.28192 -10.27924 -10.27682
 Alpha  occ. eigenvalues --  -10.25743  -1.20581  -1.16604  -1.10855  -1.07750
 Alpha  occ. eigenvalues --   -0.94816  -0.92755  -0.86928  -0.85567  -0.83820
 Alpha  occ. eigenvalues --   -0.82049  -0.76328  -0.74818  -0.70988  -0.69480
 Alpha  occ. eigenvalues --   -0.66835  -0.63830  -0.63610  -0.61469  -0.59319
 Alpha  occ. eigenvalues --   -0.58684  -0.56668  -0.56433  -0.55302  -0.54100
 Alpha  occ. eigenvalues --   -0.52740  -0.51209  -0.50971  -0.50546  -0.49917
 Alpha  occ. eigenvalues --   -0.49446  -0.48676  -0.48093  -0.46819  -0.44960
 Alpha  occ. eigenvalues --   -0.44597  -0.43401  -0.42913  -0.40123  -0.35944
 Alpha  occ. eigenvalues --   -0.34892  -0.33184  -0.29751  -0.22710
 Alpha virt. eigenvalues --   -0.05000   0.03762   0.04597   0.05251   0.05503
 Alpha virt. eigenvalues --    0.05710   0.05981   0.06855   0.07157   0.07506
 Alpha virt. eigenvalues --    0.08048   0.08210   0.08655   0.09151   0.09509
 Alpha virt. eigenvalues --    0.10255   0.10641   0.10853   0.11192   0.11634
 Alpha virt. eigenvalues --    0.12500   0.12799   0.13708   0.14052   0.14707
 Alpha virt. eigenvalues --    0.14806   0.15100   0.15695   0.16228   0.16419
 Alpha virt. eigenvalues --    0.16635   0.16818   0.17290   0.17635   0.17709
 Alpha virt. eigenvalues --    0.18212   0.18484   0.18692   0.18925   0.19209
 Alpha virt. eigenvalues --    0.19506   0.19868   0.20156   0.20850   0.21167
 Alpha virt. eigenvalues --    0.21370   0.21769   0.22208   0.22515   0.22809
 Alpha virt. eigenvalues --    0.23068   0.23589   0.24161   0.24416   0.24830
 Alpha virt. eigenvalues --    0.25107   0.25489   0.25632   0.26446   0.26638
 Alpha virt. eigenvalues --    0.27349   0.27519   0.28111   0.28615   0.28763
 Alpha virt. eigenvalues --    0.28996   0.30093   0.30493   0.30740   0.31154
 Alpha virt. eigenvalues --    0.31509   0.32052   0.32391   0.32737   0.32825
 Alpha virt. eigenvalues --    0.33105   0.33711   0.34030   0.35032   0.35190
 Alpha virt. eigenvalues --    0.35674   0.35976   0.36564   0.36871   0.37542
 Alpha virt. eigenvalues --    0.37752   0.37998   0.38661   0.38913   0.39047
 Alpha virt. eigenvalues --    0.39642   0.40276   0.41243   0.41480   0.41957
 Alpha virt. eigenvalues --    0.42438   0.43085   0.43228   0.43962   0.44977
 Alpha virt. eigenvalues --    0.45513   0.46406   0.47194   0.47684   0.48732
 Alpha virt. eigenvalues --    0.48958   0.49934   0.50454   0.51576   0.52371
 Alpha virt. eigenvalues --    0.53251   0.53636   0.55209   0.55590   0.58470
 Alpha virt. eigenvalues --    0.59364   0.61327   0.63036   0.63945   0.64809
 Alpha virt. eigenvalues --    0.65878   0.66373   0.66572   0.67132   0.67826
 Alpha virt. eigenvalues --    0.68896   0.69494   0.69923   0.70792   0.71185
 Alpha virt. eigenvalues --    0.71717   0.72110   0.72820   0.72948   0.73256
 Alpha virt. eigenvalues --    0.73948   0.74372   0.74530   0.75748   0.77005
 Alpha virt. eigenvalues --    0.77550   0.77892   0.78239   0.78639   0.79513
 Alpha virt. eigenvalues --    0.80237   0.81550   0.82652   0.82835   0.83374
 Alpha virt. eigenvalues --    0.84096   0.85343   0.85884   0.86838   0.87442
 Alpha virt. eigenvalues --    0.89789   0.90438   0.91947   0.93331   0.94692
 Alpha virt. eigenvalues --    0.96234   0.96581   0.96931   0.97683   0.97932
 Alpha virt. eigenvalues --    0.99733   1.01091   1.03018   1.03586   1.04742
 Alpha virt. eigenvalues --    1.05406   1.06764   1.08643   1.10251   1.11064
 Alpha virt. eigenvalues --    1.11454   1.11714   1.12815   1.13791   1.14123
 Alpha virt. eigenvalues --    1.15350   1.17215   1.19273   1.20268   1.22010
 Alpha virt. eigenvalues --    1.22529   1.23551   1.24729   1.25633   1.28730
 Alpha virt. eigenvalues --    1.31610   1.31684   1.32978   1.36037   1.36389
 Alpha virt. eigenvalues --    1.37348   1.37974   1.39247   1.39799   1.42478
 Alpha virt. eigenvalues --    1.44481   1.46076   1.49611   1.50192   1.53072
 Alpha virt. eigenvalues --    1.53176   1.53490   1.55005   1.57052   1.57325
 Alpha virt. eigenvalues --    1.58652   1.60074   1.60246   1.60934   1.61979
 Alpha virt. eigenvalues --    1.63337   1.63840   1.64649   1.65808   1.67495
 Alpha virt. eigenvalues --    1.68051   1.68938   1.69261   1.70362   1.71784
 Alpha virt. eigenvalues --    1.72596   1.74369   1.76043   1.76879   1.77710
 Alpha virt. eigenvalues --    1.78466   1.78954   1.79122   1.80075   1.81185
 Alpha virt. eigenvalues --    1.81250   1.82776   1.84219   1.86518   1.87157
 Alpha virt. eigenvalues --    1.88063   1.89641   1.89863   1.91291   1.93725
 Alpha virt. eigenvalues --    1.94986   1.96227   1.98045   1.99793   2.01539
 Alpha virt. eigenvalues --    2.03560   2.04658   2.05013   2.06549   2.06839
 Alpha virt. eigenvalues --    2.09301   2.10274   2.12045   2.14098   2.14493
 Alpha virt. eigenvalues --    2.16263   2.17646   2.17965   2.20073   2.20697
 Alpha virt. eigenvalues --    2.21018   2.21881   2.23258   2.23719   2.26838
 Alpha virt. eigenvalues --    2.28240   2.29326   2.31479   2.34868   2.36900
 Alpha virt. eigenvalues --    2.39451   2.40377   2.43053   2.44311   2.49452
 Alpha virt. eigenvalues --    2.51489   2.53766   2.54690   2.57155   2.57487
 Alpha virt. eigenvalues --    2.58698   2.59434   2.60622   2.62223   2.62311
 Alpha virt. eigenvalues --    2.63704   2.66018   2.67393   2.69057   2.70475
 Alpha virt. eigenvalues --    2.71220   2.72119   2.72635   2.73942   2.76936
 Alpha virt. eigenvalues --    2.78258   2.79579   2.80506   2.81150   2.82031
 Alpha virt. eigenvalues --    2.84369   2.85480   2.86868   2.89101   2.90403
 Alpha virt. eigenvalues --    2.91095   2.92339   2.93792   2.95216   2.97217
 Alpha virt. eigenvalues --    2.99691   3.00337   3.01196   3.01668   3.04746
 Alpha virt. eigenvalues --    3.06024   3.08712   3.09535   3.10915   3.12361
 Alpha virt. eigenvalues --    3.16118   3.16487   3.19226   3.23072   3.23895
 Alpha virt. eigenvalues --    3.24400   3.25409   3.27037   3.32377   3.34804
 Alpha virt. eigenvalues --    3.37390   3.38755   3.41880   3.47914   3.48860
 Alpha virt. eigenvalues --    3.50862   3.53302   3.60104   3.60772   3.63582
 Alpha virt. eigenvalues --    3.64864   3.66113   3.74915   3.75243   3.77410
 Alpha virt. eigenvalues --    3.83119   3.83847   3.86539   3.88941   3.90399
 Alpha virt. eigenvalues --    3.90934   3.94063   3.96060   3.98170   4.04914
 Alpha virt. eigenvalues --    4.13452   4.19078   4.22018   4.28262   4.29304
 Alpha virt. eigenvalues --    4.31423   4.37331   4.49309   4.94238   4.95871
 Alpha virt. eigenvalues --    5.08994   5.16008   5.17212   5.26554   5.41265
 Alpha virt. eigenvalues --    5.52004   5.53037   5.81044   5.89339   5.97810
 Alpha virt. eigenvalues --   23.75177  23.86799  24.01561  24.03720  24.06366
 Alpha virt. eigenvalues --   24.06491  24.07221  24.11142  24.13909  24.24098
 Alpha virt. eigenvalues --   24.30393  24.35366  35.63192  50.03904  50.12375
 Alpha virt. eigenvalues --   50.24773
          Condensed to atoms (all electrons):
               1          2          3          4          5          6
     1  C    5.412773   0.374218   0.420861  -0.155733   0.010073   0.265001
     2  H    0.374218   0.461338  -0.018747  -0.000650  -0.004301  -0.042573
     3  H    0.420861  -0.018747   0.469318  -0.015904   0.005635  -0.041975
     4  C   -0.155733  -0.000650  -0.015904   5.340840   0.423959   0.253735
     5  H    0.010073  -0.004301   0.005635   0.423959   0.502113  -0.020440
     6  N    0.265001  -0.042573  -0.041975   0.253735  -0.020440   6.601436
     7  H    0.387540  -0.020064  -0.041083   0.017269  -0.000476  -0.021652
     8  H    0.003848   0.002827  -0.001126   0.383511  -0.036680  -0.069274
     9  H   -0.024705   0.003501   0.001714   0.397798  -0.049218  -0.040344
    10  C   -0.175244   0.019924   0.020075  -0.176085  -0.077933   0.188612
    11  H    0.013983  -0.000926  -0.001578  -0.009948   0.006306  -0.043270
    12  C    0.249297   0.014401  -0.024663  -0.058427   0.023075  -0.138823
    13  C   -0.185500  -0.002937  -0.002894  -0.023275  -0.004103  -0.011493
    14  H    0.011284   0.001673  -0.007633   0.001322   0.001782  -0.029588
    15  O   -0.000900   0.000080  -0.000296  -0.003454  -0.000080  -0.001108
    16  C   -0.129611  -0.003092   0.001983   0.006359   0.000092  -0.017549
    17  C   -0.010529  -0.000426   0.002064   0.020849  -0.000735   0.008193
    18  C    0.007604   0.001169   0.000801  -0.018111   0.000799  -0.013087
    19  O    0.000997   0.000119  -0.000247  -0.000819   0.000018   0.000499
    20  C    0.011022   0.000489  -0.002167  -0.001666  -0.000183   0.001611
    21  C    0.004259   0.000281   0.001541  -0.001296   0.000251  -0.000432
    22  H   -0.000742   0.000015   0.000195   0.000578   0.000023   0.000555
    23  H   -0.000567   0.000032  -0.000017  -0.000595  -0.000098  -0.000451
    24  H    0.000039   0.000005  -0.000010  -0.000013   0.000002   0.000041
    25  C   -0.003004  -0.000166   0.000617   0.001426  -0.000086  -0.000339
    26  H   -0.000076  -0.000003  -0.000003   0.000009  -0.000001  -0.000015
    27  O    0.000027   0.000003  -0.000004   0.000003   0.000000   0.000015
    28  C   -0.000066   0.000001   0.000000   0.000004  -0.000001   0.000006
    29  H    0.000018   0.000001   0.000004  -0.000001   0.000000   0.000001
    30  H    0.000001   0.000000   0.000000  -0.000001   0.000000   0.000000
    31  H   -0.000006   0.000000  -0.000001   0.000001   0.000000   0.000002
               7          8          9         10         11         12
     1  C    0.387540   0.003848  -0.024705  -0.175244   0.013983   0.249297
     2  H   -0.020064   0.002827   0.003501   0.019924  -0.000926   0.014401
     3  H   -0.041083  -0.001126   0.001714   0.020075  -0.001578  -0.024663
     4  C    0.017269   0.383511   0.397798  -0.176085  -0.009948  -0.058427
     5  H   -0.000476  -0.036680  -0.049218  -0.077933   0.006306   0.023075
     6  N   -0.021652  -0.069274  -0.040344   0.188612  -0.043270  -0.138823
     7  H    0.510508  -0.002735   0.000418   0.010232   0.001648  -0.030168
     8  H   -0.002735   0.511086  -0.014508   0.052001  -0.008234  -0.018765
     9  H    0.000418  -0.014508   0.515637   0.021327  -0.001802  -0.000634
    10  C    0.010232   0.052001   0.021327   7.984280   0.403916  -1.081847
    11  H    0.001648  -0.008234  -0.001802   0.403916   0.424525   0.120840
    12  C   -0.030168  -0.018765  -0.000634  -1.081847   0.120840  12.691283
    13  C   -0.009389   0.017695   0.001481  -1.349895  -0.117167  -0.508472
    14  H   -0.000114  -0.001262  -0.001613  -0.100353   0.005636   0.492377
    15  O    0.000609   0.000735   0.000033   0.031718   0.000401  -0.518425
    16  C    0.003462   0.005760  -0.000591   0.203968  -0.059524  -4.643043
    17  C    0.003864   0.002838   0.000827   0.292739  -0.014044  -2.002253
    18  C   -0.006989  -0.002556  -0.001217  -0.082451  -0.003562   1.141537
    19  O   -0.000089  -0.000140  -0.000008  -0.038164   0.002432   0.098115
    20  C   -0.000667   0.000024   0.000020  -0.109943   0.001527   0.539607
    21  C   -0.001964  -0.000425  -0.000210   0.051141   0.001072   0.313376
    22  H   -0.000966   0.000080  -0.000019   0.004139  -0.000877  -0.107735
    23  H   -0.000233   0.000266   0.000007  -0.020121  -0.001576   0.045141
    24  H   -0.000028  -0.000003  -0.000001  -0.001489   0.000004  -0.007301
    25  C    0.001700   0.000170   0.000037   0.095929  -0.002236  -0.160392
    26  H    0.000059   0.000000   0.000001   0.001618   0.000028  -0.000231
    27  O    0.000024   0.000001   0.000000  -0.000195  -0.000018  -0.000455
    28  C    0.000029   0.000001   0.000000   0.000345  -0.000038  -0.022720
    29  H   -0.000018   0.000000   0.000000  -0.000070   0.000004   0.000835
    30  H   -0.000004   0.000000   0.000000  -0.000107  -0.000006   0.000555
    31  H    0.000009   0.000000   0.000000   0.000103  -0.000006  -0.001541
              13         14         15         16         17         18
     1  C   -0.185500   0.011284  -0.000900  -0.129611  -0.010529   0.007604
     2  H   -0.002937   0.001673   0.000080  -0.003092  -0.000426   0.001169
     3  H   -0.002894  -0.007633  -0.000296   0.001983   0.002064   0.000801
     4  C   -0.023275   0.001322  -0.003454   0.006359   0.020849  -0.018111
     5  H   -0.004103   0.001782  -0.000080   0.000092  -0.000735   0.000799
     6  N   -0.011493  -0.029588  -0.001108  -0.017549   0.008193  -0.013087
     7  H   -0.009389  -0.000114   0.000609   0.003462   0.003864  -0.006989
     8  H    0.017695  -0.001262   0.000735   0.005760   0.002838  -0.002556
     9  H    0.001481  -0.001613   0.000033  -0.000591   0.000827  -0.001217
    10  C   -1.349895  -0.100353   0.031718   0.203968   0.292739  -0.082451
    11  H   -0.117167   0.005636   0.000401  -0.059524  -0.014044  -0.003562
    12  C   -0.508472   0.492377  -0.518425  -4.643043  -2.002253   1.141537
    13  C   10.023323   0.004337   0.581933  -0.274014  -0.568446  -1.124366
    14  H    0.004337   0.464627  -0.003335  -0.008443  -0.057833  -0.004532
    15  O    0.581933  -0.003335   7.749236   0.313201  -0.026970  -0.156676
    16  C   -0.274014  -0.008443   0.313201  15.687564  -1.076597  -0.960688
    17  C   -0.568446  -0.057833  -0.026970  -1.076597  17.357574  -5.322183
    18  C   -1.124366  -0.004532  -0.156676  -0.960688  -5.322183  13.926447
    19  O    0.074954   0.004984  -0.003066  -0.020439   0.070341   0.072609
    20  C   -0.015302   0.027885   0.004454  -1.497220  -3.694503   2.519187
    21  C   -0.131709  -0.029989  -0.059690  -2.577932  -0.563201   0.913882
    22  H   -0.039940   0.001072  -0.001941   0.129663   0.136600   0.385159
    23  H    0.069632   0.000988   0.259284  -0.040869  -0.095417   0.054204
    24  H   -0.017709   0.000147  -0.000110  -0.056587  -0.108976   0.059092
    25  C   -0.006394  -0.028515   0.003666  -0.043209   1.795469  -4.566052
    26  H    0.004226  -0.000029   0.000189   0.065789   0.008656  -0.085118
    27  O    0.007318  -0.000331  -0.000060  -0.027866   0.018758  -0.360915
    28  C   -0.026879  -0.000240  -0.000469  -0.015189   0.127405   0.263483
    29  H   -0.000146  -0.000104  -0.000058  -0.009446   0.003937   0.005307
    30  H   -0.001197  -0.000018   0.000066  -0.008115  -0.011036   0.015420
    31  H   -0.000936  -0.000021   0.000012   0.006171   0.002500   0.005759
              19         20         21         22         23         24
     1  C    0.000997   0.011022   0.004259  -0.000742  -0.000567   0.000039
     2  H    0.000119   0.000489   0.000281   0.000015   0.000032   0.000005
     3  H   -0.000247  -0.002167   0.001541   0.000195  -0.000017  -0.000010
     4  C   -0.000819  -0.001666  -0.001296   0.000578  -0.000595  -0.000013
     5  H    0.000018  -0.000183   0.000251   0.000023  -0.000098   0.000002
     6  N    0.000499   0.001611  -0.000432   0.000555  -0.000451   0.000041
     7  H   -0.000089  -0.000667  -0.001964  -0.000966  -0.000233  -0.000028
     8  H   -0.000140   0.000024  -0.000425   0.000080   0.000266  -0.000003
     9  H   -0.000008   0.000020  -0.000210  -0.000019   0.000007  -0.000001
    10  C   -0.038164  -0.109943   0.051141   0.004139  -0.020121  -0.001489
    11  H    0.002432   0.001527   0.001072  -0.000877  -0.001576   0.000004
    12  C    0.098115   0.539607   0.313376  -0.107735   0.045141  -0.007301
    13  C    0.074954  -0.015302  -0.131709  -0.039940   0.069632  -0.017709
    14  H    0.004984   0.027885  -0.029989   0.001072   0.000988   0.000147
    15  O   -0.003066   0.004454  -0.059690  -0.001941   0.259284  -0.000110
    16  C   -0.020439  -1.497220  -2.577932   0.129663  -0.040869  -0.056587
    17  C    0.070341  -3.694503  -0.563201   0.136600  -0.095417  -0.108976
    18  C    0.072609   2.519187   0.913882   0.385159   0.054204   0.059092
    19  O    8.553379  -0.136785  -0.060113  -0.001505  -0.007803  -0.012342
    20  C   -0.136785  13.812200  -1.315668  -0.031701  -0.011648   0.457758
    21  C   -0.060113  -1.315668  10.040109  -0.105548   0.013333   0.072581
    22  H   -0.001505  -0.031701  -0.105548   0.484877   0.001101   0.002377
    23  H   -0.007803  -0.011648   0.013333   0.001101   0.374494  -0.000334
    24  H   -0.012342   0.457758   0.072581   0.002377  -0.000334   0.488908
    25  C   -0.014121  -3.866358  -0.029495  -0.089988   0.004396  -0.077270
    26  H    0.002592  -0.071945  -0.164274  -0.004117   0.000002  -0.016606
    27  O    0.000108   0.016171   0.117481  -0.017231  -0.000144  -0.001587
    28  C   -0.001841  -0.308035   0.117295   0.010483   0.000176   0.005711
    29  H    0.000019   0.014485  -0.024130   0.000593  -0.000027   0.000791
    30  H    0.000105   0.020539  -0.016193  -0.000944   0.000028   0.000456
    31  H   -0.000052  -0.015743   0.038925   0.000893   0.000016   0.000247
              25         26         27         28         29         30
     1  C   -0.003004  -0.000076   0.000027  -0.000066   0.000018   0.000001
     2  H   -0.000166  -0.000003   0.000003   0.000001   0.000001   0.000000
     3  H    0.000617  -0.000003  -0.000004   0.000000   0.000004   0.000000
     4  C    0.001426   0.000009   0.000003   0.000004  -0.000001  -0.000001
     5  H   -0.000086  -0.000001   0.000000  -0.000001   0.000000   0.000000
     6  N   -0.000339  -0.000015   0.000015   0.000006   0.000001   0.000000
     7  H    0.001700   0.000059   0.000024   0.000029  -0.000018  -0.000004
     8  H    0.000170   0.000000   0.000001   0.000001   0.000000   0.000000
     9  H    0.000037   0.000001   0.000000   0.000000   0.000000   0.000000
    10  C    0.095929   0.001618  -0.000195   0.000345  -0.000070  -0.000107
    11  H   -0.002236   0.000028  -0.000018  -0.000038   0.000004  -0.000006
    12  C   -0.160392  -0.000231  -0.000455  -0.022720   0.000835   0.000555
    13  C   -0.006394   0.004226   0.007318  -0.026879  -0.000146  -0.001197
    14  H   -0.028515  -0.000029  -0.000331  -0.000240  -0.000104  -0.000018
    15  O    0.003666   0.000189  -0.000060  -0.000469  -0.000058   0.000066
    16  C   -0.043209   0.065789  -0.027866  -0.015189  -0.009446  -0.008115
    17  C    1.795469   0.008656   0.018758   0.127405   0.003937  -0.011036
    18  C   -4.566052  -0.085118  -0.360915   0.263483   0.005307   0.015420
    19  O   -0.014121   0.002592   0.000108  -0.001841   0.000019   0.000105
    20  C   -3.866358  -0.071945   0.016171  -0.308035   0.014485   0.020539
    21  C   -0.029495  -0.164274   0.117481   0.117295  -0.024130  -0.016193
    22  H   -0.089988  -0.004117  -0.017231   0.010483   0.000593  -0.000944
    23  H    0.004396   0.000002  -0.000144   0.000176  -0.000027   0.000028
    24  H   -0.077270  -0.016606  -0.001587   0.005711   0.000791   0.000456
    25  C   12.249277   0.583346   0.118466  -0.406532  -0.000573  -0.006638
    26  H    0.583346   0.502201  -0.011974  -0.011834  -0.009806  -0.010654
    27  O    0.118466  -0.011974   8.290389   0.183878  -0.040425  -0.040240
    28  C   -0.406532  -0.011834   0.183878   5.245304   0.398374   0.399838
    29  H   -0.000573  -0.009806  -0.040425   0.398374   0.578983  -0.064069
    30  H   -0.006638  -0.010654  -0.040240   0.399838  -0.064069   0.575849
    31  H   -0.001304   0.003078  -0.066790   0.400511  -0.024029  -0.023554
              31
     1  C   -0.000006
     2  H    0.000000
     3  H   -0.000001
     4  C    0.000001
     5  H    0.000000
     6  N    0.000002
     7  H    0.000009
     8  H    0.000000
     9  H    0.000000
    10  C    0.000103
    11  H   -0.000006
    12  C   -0.001541
    13  C   -0.000936
    14  H   -0.000021
    15  O    0.000012
    16  C    0.006171
    17  C    0.002500
    18  C    0.005759
    19  O   -0.000052
    20  C   -0.015743
    21  C    0.038925
    22  H    0.000893
    23  H    0.000016
    24  H    0.000247
    25  C   -0.001304
    26  H    0.003078
    27  O   -0.066790
    28  C    0.400511
    29  H   -0.024029
    30  H   -0.023554
    31  H    0.469413
 Mulliken charges:
               1
     1  C   -0.486165
     2  H    0.213808
     3  H    0.233540
     4  C   -0.381684
     5  H    0.220205
     6  N    0.172707
     7  H    0.199267
     8  H    0.174867
     9  H    0.192068
    10  C   -0.168170
    11  H    0.282491
    12  C   -0.404544
    13  C   -0.362736
    14  H    0.255839
    15  O   -0.168977
    16  C    1.046012
    17  C   -0.299465
    18  C   -0.663956
    19  O   -0.583735
    20  C   -0.347444
    21  C   -0.603257
    22  H    0.244849
    23  H    0.356803
    24  H    0.212208
    25  C    0.448175
    26  H    0.214890
    27  O   -0.184406
    28  C   -0.358999
    29  H    0.169548
    30  H    0.169919
    31  H    0.206341
 Sum of Mulliken charges =   0.00000
 Mulliken charges with hydrogens summed into heavy atoms:
               1
     1  C    0.160451
     4  C    0.205455
     6  N    0.172707
    10  C    0.114321
    12  C   -0.148705
    13  C   -0.362736
    15  O    0.187826
    16  C    1.046012
    17  C   -0.299465
    18  C   -0.419107
    19  O   -0.583735
    20  C   -0.135236
    21  C   -0.603257
    25  C    0.663065
    27  O   -0.184406
    28  C    0.186809
 Electronic spatial extent (au):  <R**2>=           5391.4709
 Charge=              0.0000 electrons
 Dipole moment (field-independent basis, Debye):
    X=            -12.1865    Y=             -7.0090    Z=              1.2838  Tot=             14.1168
 Quadrupole moment (field-independent basis, Debye-Ang):
   XX=            -34.7708   YY=           -112.0409   ZZ=            -93.4901
   XY=              2.0178   XZ=              1.7502   YZ=             12.6850
 Traceless Quadrupole moment (field-independent basis, Debye-Ang):
   XX=             45.3298   YY=            -31.9403   ZZ=            -13.3895
   XY=              2.0178   XZ=              1.7502   YZ=             12.6850
 Octapole moment (field-independent basis, Debye-Ang**2):
  XXX=           -193.7109  YYY=            -63.1471  ZZZ=              8.8067  XYY=            -21.9184
  XXY=            -44.6366  XXZ=            -29.5621  XZZ=            -24.6086  YZZ=             -2.0691
  YYZ=             20.4759  XYZ=            -10.6407
 Hexadecapole moment (field-independent basis, Debye-Ang**3):
 XXXX=          -3836.4869 YYYY=          -1142.6794 ZZZZ=           -494.5874 XXXY=            -28.6992
 XXXZ=              9.4144 YYYX=            -36.7178 YYYZ=             83.2086 ZZZX=             25.0775
 ZZZY=             41.8877 XXYY=          -1032.8719 XXZZ=           -972.8229 YYZZ=           -230.8963
 XXYZ=             53.3924 YYXZ=             16.7248 ZZXY=             10.3592
 N-N= 1.046804517980D+03 E-N=-3.836998335204D+03  KE= 7.435936498052D+02
 D1PCM: PCM CHGder 1st derivatives, ID1Alg=3 FixD1E=F DoIter=F DoCFld=F I1PDM=6.
 Calling FoFJK, ICntrl=  10005127 FMM=F ISym2X=0 I1Cent= 0 IOpClX= 0 NMat=1 NMatS=1 NMatT=0.
 ***** Axes restored to original set *****
 -------------------------------------------------------------------
 Center     Atomic                   Forces (Hartrees/Bohr)
 Number     Number              X              Y              Z
 -------------------------------------------------------------------
      1        6          -0.000885325    0.001295029    0.000739840
      2        1          -0.000265121   -0.000208442   -0.000168990
      3        1           0.000284402   -0.000268629    0.000260637
      4        6           0.001528076    0.000127253   -0.001988298
      5        1           0.000258482   -0.000041778    0.000747562
      6        7          -0.000813311   -0.002245634   -0.000203884
      7        1          -0.000187447    0.000225252    0.000039078
      8        1           0.000102192    0.000029757   -0.000104576
      9        1          -0.000343306   -0.000087947   -0.000172714
     10        6          -0.006434270    0.001330523    0.003544283
     11        1           0.000508047    0.000102135   -0.000390845
     12        6           0.013391239    0.009235564    0.000011260
     13        6          -0.018368998   -0.008026828    0.004138008
     14        1           0.000067771    0.000401058    0.000340354
     15        8           0.002888025   -0.001192408   -0.003205671
     16        6           0.012218474    0.001032637   -0.006750279
     17        6          -0.001159280   -0.002787923    0.001655556
     18        6          -0.004187739    0.000116248    0.007322792
     19        8           0.000605005    0.002429857   -0.004108104
     20        6          -0.001177364   -0.000533558    0.003413817
     21        6           0.006985434   -0.001423695    0.005800314
     22        1           0.000201972   -0.000130442    0.000121779
     23        1          -0.001404494   -0.002270186   -0.000546264
     24        1          -0.000540404   -0.000407990    0.000479296
     25        6          -0.003004203    0.002160153   -0.005962485
     26        1           0.000350883    0.000039235   -0.000313160
     27        8           0.003896461    0.001782099   -0.007078917
     28        6          -0.005742822   -0.000547014    0.002162898
     29        1           0.000676630   -0.000560218    0.000109595
     30        1           0.000645821    0.000326949    0.000413294
     31        1          -0.000094829    0.000098941   -0.000306177
 -------------------------------------------------------------------
 Cartesian Forces:  Max     0.018368998 RMS     0.003798620

 GradGradGradGradGradGradGradGradGradGradGradGradGradGradGradGradGradGrad
 Berny optimization.
 FormGI is forming the generalized inverse of G from B-inverse, IUseBI=4.
 GSVD:  received Info=                   1 from GESDD.
 Internal  Forces:  Max     0.012494424 RMS     0.001962966
 Search for a local minimum.
 Step number   1 out of a maximum of  150
 All quantities printed in internal units (Hartrees-Bohrs-Radians)
 Mixed Optimization -- RFO/linear search
 Second derivative matrix not updated -- first step.
 ITU=  0
     Eigenvalues ---    0.01017   0.01045   0.01114   0.01441   0.01467
     Eigenvalues ---    0.01605   0.01690   0.01755   0.01927   0.01963
     Eigenvalues ---    0.01973   0.02027   0.02094   0.02128   0.02170
     Eigenvalues ---    0.02203   0.02271   0.02280   0.02294   0.02346
     Eigenvalues ---    0.02407   0.02473   0.07301   0.07333   0.07639
     Eigenvalues ---    0.07689   0.10101   0.10704   0.15991   0.15997
     Eigenvalues ---    0.15999   0.16000   0.16000   0.16000   0.16000
     Eigenvalues ---    0.16000   0.16000   0.16000   0.16000   0.16000
     Eigenvalues ---    0.16000   0.16000   0.16000   0.21230   0.22000
     Eigenvalues ---    0.22003   0.22349   0.22370   0.23472   0.24583
     Eigenvalues ---    0.24961   0.24970   0.24972   0.24989   0.24999
     Eigenvalues ---    0.25000   0.33552   0.33638   0.34344   0.34350
     Eigenvalues ---    0.34452   0.34529   0.34542   0.34658   0.34692
     Eigenvalues ---    0.35081   0.35552   0.35602   0.35610   0.35646
     Eigenvalues ---    0.35698   0.36639   0.37781   0.38387   0.39085
     Eigenvalues ---    0.42294   0.42912   0.43825   0.48105   0.48345
     Eigenvalues ---    0.49340   0.49856   0.51058   0.51199   0.55804
     Eigenvalues ---    0.57002   0.84455
 RFO step:  Lambda=-1.92495255D-03 EMin= 1.01685613D-02
 Linear search not attempted -- first point.
 Iteration  1 RMS(Cart)=  0.06864625 RMS(Int)=  0.00103240
 Iteration  2 RMS(Cart)=  0.00177203 RMS(Int)=  0.00005616
 Iteration  3 RMS(Cart)=  0.00000087 RMS(Int)=  0.00005616
 Variable       Old X    -DE/DX   Delta X   Delta X   Delta X     New X
                                 (Linear)    (Quad)   (Total)
    R1        2.06178  -0.00036   0.00000  -0.00103  -0.00103   2.06075
    R2        2.08092  -0.00047   0.00000  -0.00138  -0.00138   2.07954
    R3        2.72816   0.00161   0.00000   0.00411   0.00411   2.73227
    R4        2.06426   0.00007   0.00000   0.00020   0.00020   2.06446
    R5        2.07945  -0.00072   0.00000  -0.00212  -0.00212   2.07733
    R6        2.73805   0.00215   0.00000   0.00556   0.00556   2.74362
    R7        2.06234   0.00004   0.00000   0.00011   0.00011   2.06244
    R8        2.06446  -0.00037   0.00000  -0.00107  -0.00107   2.06340
    R9        2.60538  -0.00122   0.00000  -0.00247  -0.00247   2.60291
   R10        2.04638   0.00031   0.00000   0.00088   0.00088   2.04726
   R11        2.60011  -0.00664   0.00000  -0.01326  -0.01326   2.58685
   R12        2.61827   0.01249   0.00000   0.02587   0.02587   2.64414
   R13        2.04695   0.00045   0.00000   0.00125   0.00125   2.04820
   R14        2.58812   0.00498   0.00000   0.00972   0.00972   2.59784
   R15        2.79875  -0.01021   0.00000  -0.02946  -0.02946   2.76928
   R16        1.81125   0.00226   0.00000   0.00403   0.00403   1.81528
   R17        2.74514   0.00243   0.00000   0.00673   0.00678   2.75192
   R18        2.59223   0.00555   0.00000   0.01139   0.01140   2.60362
   R19        2.35599   0.00459   0.00000   0.00542   0.00542   2.36141
   R20        2.73160   0.00087   0.00000   0.00192   0.00195   2.73355
   R21        2.65230  -0.00320   0.00000  -0.00684  -0.00687   2.64543
   R22        2.04709   0.00026   0.00000   0.00071   0.00071   2.04780
   R23        2.04789  -0.00001   0.00000  -0.00003  -0.00003   2.04786
   R24        2.58271  -0.00394   0.00000  -0.00807  -0.00808   2.57462
   R25        2.67208   0.00450   0.00000   0.01003   0.00999   2.68207
   R26        2.53395  -0.00470   0.00000  -0.00821  -0.00821   2.52574
   R27        2.04556  -0.00043   0.00000  -0.00120  -0.00120   2.04435
   R28        2.67778   0.00511   0.00000   0.01186   0.01186   2.68964
   R29        2.06753  -0.00081   0.00000  -0.00234  -0.00234   2.06519
   R30        2.06743  -0.00078   0.00000  -0.00225  -0.00225   2.06518
   R31        2.05544  -0.00033   0.00000  -0.00094  -0.00094   2.05450
    A1        1.89489   0.00001   0.00000  -0.00053  -0.00053   1.89436
    A2        1.90578  -0.00008   0.00000  -0.00044  -0.00044   1.90534
    A3        1.88492  -0.00003   0.00000   0.00056   0.00056   1.88548
    A4        1.96150  -0.00017   0.00000  -0.00140  -0.00140   1.96010
    A5        1.89211  -0.00017   0.00000  -0.00116  -0.00116   1.89095
    A6        1.92292   0.00044   0.00000   0.00300   0.00300   1.92592
    A7        1.96173  -0.00014   0.00000  -0.00110  -0.00110   1.96062
    A8        1.88936   0.00006   0.00000   0.00135   0.00135   1.89071
    A9        1.89497  -0.00012   0.00000  -0.00218  -0.00218   1.89279
   A10        1.91273   0.00033   0.00000   0.00279   0.00279   1.91552
   A11        1.91624  -0.00012   0.00000  -0.00126  -0.00126   1.91498
   A12        1.88716  -0.00001   0.00000   0.00045   0.00045   1.88761
   A13        2.01408   0.00035   0.00000   0.00105   0.00105   2.01512
   A14        2.07115  -0.00068   0.00000  -0.00375  -0.00375   2.06740
   A15        2.03698   0.00030   0.00000   0.00085   0.00085   2.03783
   A16        2.00384  -0.00065   0.00000  -0.00365  -0.00367   2.00017
   A17        2.20098   0.00024   0.00000   0.00121   0.00119   2.20216
   A18        2.07734   0.00042   0.00000   0.00296   0.00294   2.08027
   A19        2.16538   0.00116   0.00000   0.00521   0.00520   2.17059
   A20        2.09807  -0.00082   0.00000  -0.00410  -0.00411   2.09396
   A21        2.01971  -0.00034   0.00000  -0.00114  -0.00115   2.01857
   A22        2.08335   0.00055   0.00000   0.00281   0.00269   2.08604
   A23        2.15924  -0.00237   0.00000  -0.00884  -0.00897   2.15027
   A24        2.03822   0.00185   0.00000   0.00793   0.00781   2.04602
   A25        1.90496   0.00159   0.00000   0.00983   0.00983   1.91478
   A26        2.06334  -0.00121   0.00000  -0.00528  -0.00543   2.05791
   A27        2.12033   0.00155   0.00000   0.00576   0.00561   2.12593
   A28        2.09858  -0.00032   0.00000   0.00059   0.00059   2.09917
   A29        2.11775   0.00061   0.00000   0.00272   0.00238   2.12013
   A30        2.03907  -0.00023   0.00000  -0.00049  -0.00063   2.03844
   A31        2.12598  -0.00036   0.00000  -0.00110  -0.00143   2.12454
   A32        2.11284  -0.00124   0.00000  -0.00395  -0.00394   2.10890
   A33        2.10772   0.00059   0.00000   0.00188   0.00186   2.10958
   A34        2.06245   0.00065   0.00000   0.00221   0.00219   2.06464
   A35        2.04406   0.00061   0.00000   0.00489   0.00486   2.04892
   A36        2.12616   0.00037   0.00000   0.00003   0.00010   2.12626
   A37        2.11293  -0.00098   0.00000  -0.00494  -0.00497   2.10795
   A38        2.10000   0.00057   0.00000   0.00221   0.00216   2.10216
   A39        2.01964   0.00061   0.00000   0.00248   0.00248   2.02211
   A40        2.16350  -0.00117   0.00000  -0.00459  -0.00459   2.15891
   A41        2.08832   0.00086   0.00000   0.00218   0.00217   2.09050
   A42        2.08947  -0.00062   0.00000  -0.00228  -0.00228   2.08720
   A43        2.10539  -0.00024   0.00000   0.00010   0.00010   2.10549
   A44        2.08348   0.00134   0.00000   0.00531   0.00531   2.08879
   A45        1.94125  -0.00033   0.00000  -0.00196  -0.00196   1.93929
   A46        1.93913  -0.00020   0.00000  -0.00108  -0.00108   1.93804
[...]
 Alpha virt. eigenvalues --    2.09451   2.10884   2.12004   2.14115   2.14628
 Alpha virt. eigenvalues --    2.16500   2.17362   2.18610   2.20642   2.20816
 Alpha virt. eigenvalues --    2.21586   2.21759   2.23740   2.24169   2.27297
 Alpha virt. eigenvalues --    2.28342   2.29231   2.32340   2.35498   2.37127
 Alpha virt. eigenvalues --    2.39514   2.39818   2.41853   2.44767   2.49782
 Alpha virt. eigenvalues --    2.51960   2.54207   2.54430   2.57336   2.57885
 Alpha virt. eigenvalues --    2.59188   2.59844   2.60904   2.62183   2.62829
 Alpha virt. eigenvalues --    2.64414   2.66477   2.67760   2.69535   2.70195
 Alpha virt. eigenvalues --    2.71498   2.72319   2.72707   2.73669   2.77467
 Alpha virt. eigenvalues --    2.78582   2.79479   2.80462   2.81582   2.82282
 Alpha virt. eigenvalues --    2.84328   2.85881   2.86793   2.88713   2.90425
 Alpha virt. eigenvalues --    2.91582   2.93491   2.94043   2.96221   2.97439
 Alpha virt. eigenvalues --    2.99016   2.99907   3.01510   3.02195   3.04676
 Alpha virt. eigenvalues --    3.05862   3.08214   3.10221   3.11097   3.12486
 Alpha virt. eigenvalues --    3.15986   3.16268   3.19080   3.23394   3.23738
 Alpha virt. eigenvalues --    3.24163   3.24567   3.25944   3.26141   3.33242
 Alpha virt. eigenvalues --    3.37410   3.38224   3.41716   3.48136   3.49736
 Alpha virt. eigenvalues --    3.50337   3.53998   3.60432   3.60642   3.62907
 Alpha virt. eigenvalues --    3.64400   3.66416   3.74574   3.75300   3.77637
 Alpha virt. eigenvalues --    3.83120   3.84051   3.86811   3.89165   3.90598
 Alpha virt. eigenvalues --    3.91127   3.94349   3.97069   3.99381   4.05424
 Alpha virt. eigenvalues --    4.14926   4.19000   4.21452   4.28488   4.29010
 Alpha virt. eigenvalues --    4.31341   4.37179   4.48857   4.93770   4.95775
 Alpha virt. eigenvalues --    5.08805   5.11293   5.16616   5.26061   5.41385
 Alpha virt. eigenvalues --    5.51922   5.53288   5.80964   5.88868   5.97691
 Alpha virt. eigenvalues --   23.75357  23.88251  24.00595  24.04061  24.04732
 Alpha virt. eigenvalues --   24.06710  24.07073  24.10057  24.14037  24.25449
 Alpha virt. eigenvalues --   24.28923  24.35640  35.63877  50.02720  50.12444
 Alpha virt. eigenvalues --   50.24891
          Condensed to atoms (all electrons):
               1          2          3          4          5          6
     1  C    5.413566   0.371696   0.421400  -0.156510   0.008878   0.282219
     2  H    0.371696   0.461713  -0.019789  -0.001396  -0.005222  -0.042106
     3  H    0.421400  -0.019789   0.476470  -0.015218   0.006481  -0.042887
     4  C   -0.156510  -0.001396  -0.015218   5.340231   0.419710   0.256928
     5  H    0.008878  -0.005222   0.006481   0.419710   0.507017  -0.020191
     6  N    0.282219  -0.042106  -0.042887   0.256928  -0.020191   6.627342
     7  H    0.389459  -0.022187  -0.040412   0.018531  -0.000412  -0.021363
     8  H    0.005035   0.003444  -0.001560   0.389954  -0.038017  -0.067370
     9  H   -0.023622   0.002454   0.002199   0.399816  -0.048985  -0.043042
    10  C   -0.166576   0.010816   0.032705  -0.159364  -0.079504   0.224008
    11  H    0.014385  -0.001661  -0.000809  -0.015459   0.006168  -0.044079
    12  C    0.199587   0.017844  -0.026401  -0.080167   0.022863  -0.160313
    13  C   -0.200944   0.000883  -0.009629   0.016287   0.002228  -0.045404
    14  H    0.005305   0.003078  -0.008448  -0.004609   0.001667  -0.033924
    15  O    0.000355   0.000098  -0.000594  -0.003047   0.000145  -0.000724
    16  C   -0.088422   0.003187  -0.002837  -0.022467   0.001794  -0.024217
    17  C   -0.034888  -0.003771   0.005302   0.038748  -0.001941   0.003898
    18  C    0.028601   0.004907  -0.002417  -0.030042   0.001819  -0.010027
    19  O    0.000459   0.000023  -0.000279  -0.000452  -0.000026   0.000478
    20  C    0.020766   0.001160  -0.002390  -0.001661  -0.000203   0.005134
    21  C   -0.000004   0.000297   0.001313  -0.001769   0.000336  -0.001464
    22  H   -0.000414  -0.000022   0.000228   0.000443   0.000017   0.000445
    23  H   -0.000770   0.000042  -0.000141  -0.000176  -0.000002  -0.000701
    24  H    0.000125   0.000009   0.000001  -0.000015   0.000004   0.000056
    25  C   -0.005644  -0.000265   0.000449   0.001391  -0.000142  -0.000890
    26  H   -0.000023   0.000004  -0.000014  -0.000013  -0.000001  -0.000015
    27  O    0.000016   0.000001  -0.000009   0.000004   0.000000   0.000010
    28  C   -0.000029   0.000004   0.000006   0.000003   0.000000   0.000002
    29  H    0.000003   0.000000   0.000005   0.000000   0.000000   0.000000
    30  H    0.000002   0.000000   0.000000   0.000000   0.000000   0.000000
    31  H   -0.000005   0.000000  -0.000001   0.000001   0.000000   0.000001
               7          8          9         10         11         12
     1  C    0.389459   0.005035  -0.023622  -0.166576   0.014385   0.199587
     2  H   -0.022187   0.003444   0.002454   0.010816  -0.001661   0.017844
     3  H   -0.040412  -0.001560   0.002199   0.032705  -0.000809  -0.026401
     4  C    0.018531   0.389954   0.399816  -0.159364  -0.015459  -0.080167
     5  H   -0.000412  -0.038017  -0.048985  -0.079504   0.006168   0.022863
     6  N   -0.021363  -0.067370  -0.043042   0.224008  -0.044079  -0.160313
     7  H    0.515114  -0.002723   0.000674   0.017539   0.001428  -0.017322
     8  H   -0.002723   0.513027  -0.014010   0.047849  -0.007683  -0.021041
     9  H    0.000674  -0.014010   0.518979   0.022147  -0.001444   0.001933
    10  C    0.017539   0.047849   0.022147   8.632366   0.398331  -1.530466
    11  H    0.001428  -0.007683  -0.001444   0.398331   0.427734   0.131673
    12  C   -0.017322  -0.021041   0.001933  -1.530466   0.131673  13.145206
    13  C   -0.009305   0.014459   0.000087  -1.406746  -0.113222  -0.454271
    14  H   -0.003844  -0.001209  -0.001875  -0.199469   0.002511   0.464289
    15  O    0.000481   0.000819  -0.000016   0.048952  -0.000546  -0.460034
    16  C   -0.011187   0.006206  -0.003422   0.163516  -0.062753  -4.593129
    17  C    0.012798   0.002470   0.002443   0.499273  -0.021300  -1.789497
    18  C   -0.020065  -0.001701  -0.002867  -0.298361   0.002145   1.036596
    19  O    0.000479  -0.000230   0.000038  -0.041283   0.002607   0.156693
    20  C   -0.002419   0.000017  -0.000032  -0.108236   0.002458   0.745596
    21  C   -0.002936  -0.000299  -0.000280   0.020529   0.000908  -0.033324
    22  H   -0.000825   0.000068  -0.000019   0.005802  -0.000689  -0.101528
    23  H   -0.000241   0.000100  -0.000025  -0.028360  -0.000029   0.052704
    24  H   -0.000042  -0.000003  -0.000001  -0.001757   0.000010  -0.003315
    25  C    0.001905   0.000195   0.000045   0.084611  -0.003557  -0.293697
    26  H    0.000023   0.000001  -0.000001   0.000925  -0.000002   0.000192
    27  O    0.000043   0.000000   0.000000  -0.000226  -0.000020   0.001015
    28  C   -0.000025   0.000001   0.000000   0.000360  -0.000050  -0.022438
    29  H   -0.000008   0.000000   0.000000  -0.000099   0.000003   0.000365
    30  H   -0.000003   0.000000   0.000000  -0.000001   0.000002   0.000786
    31  H    0.000006   0.000000   0.000000   0.000069  -0.000007  -0.001404
              13         14         15         16         17         18
     1  C   -0.200944   0.005305   0.000355  -0.088422  -0.034888   0.028601
     2  H    0.000883   0.003078   0.000098   0.003187  -0.003771   0.004907
     3  H   -0.009629  -0.008448  -0.000594  -0.002837   0.005302  -0.002417
     4  C    0.016287  -0.004609  -0.003047  -0.022467   0.038748  -0.030042
     5  H    0.002228   0.001667   0.000145   0.001794  -0.001941   0.001819
     6  N   -0.045404  -0.033924  -0.000724  -0.024217   0.003898  -0.010027
     7  H   -0.009305  -0.003844   0.000481  -0.011187   0.012798  -0.020065
     8  H    0.014459  -0.001209   0.000819   0.006206   0.002470  -0.001701
     9  H    0.000087  -0.001875  -0.000016  -0.003422   0.002443  -0.002867
    10  C   -1.406746  -0.199469   0.048952   0.163516   0.499273  -0.298361
    11  H   -0.113222   0.002511  -0.000546  -0.062753  -0.021300   0.002145
    12  C   -0.454271   0.464289  -0.460034  -4.593129  -1.789497   1.036596
    13  C   10.735910   0.050064   0.462351  -0.460453   0.937329  -2.924735
    14  H    0.050064   0.478938  -0.002283   0.031009  -0.097310   0.062639
    15  O    0.462351  -0.002283   7.723423   0.332333  -0.085678  -0.106575
    16  C   -0.460453   0.031009   0.332333  17.198991  -1.540232  -1.627714
    17  C    0.937329  -0.097310  -0.085678  -1.540232  18.390869  -7.513281
    18  C   -2.924735   0.062639  -0.106575  -1.627714  -7.513281  17.403808
    19  O    0.014630   0.004338  -0.001186  -0.065644   0.152839   0.071366
    20  C   -0.382590   0.030152  -0.001068  -2.219461  -3.359846   3.129767
    21  C   -0.218666  -0.011083  -0.039927  -2.276647  -0.601851   1.577925
    22  H   -0.052113   0.000893  -0.000478   0.111790   0.108191   0.419219
    23  H    0.110928   0.004379   0.259432  -0.056040  -0.067614   0.007243
    24  H   -0.020634   0.000104  -0.000075  -0.060072  -0.095422   0.058806
    25  C    0.248000  -0.026190   0.004584   0.294526   1.187694  -4.315033
    26  H   -0.000869  -0.000061   0.000153   0.066137  -0.027193  -0.070222
    27  O    0.011935  -0.000593   0.000011  -0.003438   0.038668  -0.455855
    28  C   -0.025616  -0.000041  -0.000503  -0.035919   0.093452   0.250380
    29  H    0.000805  -0.000078  -0.000065  -0.007633   0.003032   0.016194
    30  H   -0.000344   0.000005   0.000071  -0.006484  -0.002732   0.005927
    31  H   -0.000847  -0.000036   0.000014   0.006288   0.001254  -0.000073
              19         20         21         22         23         24
     1  C    0.000459   0.020766  -0.000004  -0.000414  -0.000770   0.000125
     2  H    0.000023   0.001160   0.000297  -0.000022   0.000042   0.000009
     3  H   -0.000279  -0.002390   0.001313   0.000228  -0.000141   0.000001
     4  C   -0.000452  -0.001661  -0.001769   0.000443  -0.000176  -0.000015
     5  H   -0.000026  -0.000203   0.000336   0.000017  -0.000002   0.000004
     6  N    0.000478   0.005134  -0.001464   0.000445  -0.000701   0.000056
     7  H    0.000479  -0.002419  -0.002936  -0.000825  -0.000241  -0.000042
     8  H   -0.000230   0.000017  -0.000299   0.000068   0.000100  -0.000003
     9  H    0.000038  -0.000032  -0.000280  -0.000019  -0.000025  -0.000001
    10  C   -0.041283  -0.108236   0.020529   0.005802  -0.028360  -0.001757
    11  H    0.002607   0.002458   0.000908  -0.000689  -0.000029   0.000010
    12  C    0.156693   0.745596  -0.033324  -0.101528   0.052704  -0.003315
    13  C    0.014630  -0.382590  -0.218666  -0.052113   0.110928  -0.020634
    14  H    0.004338   0.030152  -0.011083   0.000893   0.004379   0.000104
    15  O   -0.001186  -0.001068  -0.039927  -0.000478   0.259432  -0.000075
    16  C   -0.065644  -2.219461  -2.276647   0.111790  -0.056040  -0.060072
    17  C    0.152839  -3.359846  -0.601851   0.108191  -0.067614  -0.095422
    18  C    0.071366   3.129767   1.577925   0.419219   0.007243   0.058806
    19  O    8.558163  -0.217781  -0.065374  -0.001566  -0.002389  -0.014969
    20  C   -0.217781  13.135817  -1.376172  -0.011264   0.006916   0.445590
    21  C   -0.065374  -1.376172   9.508975  -0.087723   0.002078   0.070474
    22  H   -0.001566  -0.011264  -0.087723   0.474118   0.000883   0.002411
    23  H   -0.002389   0.006916   0.002078   0.000883   0.355265  -0.000068
    24  H   -0.014969   0.445590   0.070474   0.002411  -0.000068   0.484799
    25  C    0.021397  -3.211245  -0.013153  -0.098951   0.002595  -0.070496
    26  H    0.003159  -0.026777  -0.157003  -0.004265   0.000126  -0.016681
    27  O    0.000218  -0.000378   0.158165  -0.016874  -0.000177  -0.001728
    28  C   -0.001644  -0.278976   0.159979   0.009083   0.000414   0.005369
    29  H    0.000024   0.015510  -0.027110   0.000424  -0.000038   0.000871
    30  H    0.000053   0.009627  -0.019957  -0.000603  -0.000019   0.000379
    31  H   -0.000039  -0.014018   0.041610   0.000645   0.000044   0.000230
              25         26         27         28         29         30
     1  C   -0.005644  -0.000023   0.000016  -0.000029   0.000003   0.000002
     2  H   -0.000265   0.000004   0.000001   0.000004   0.000000   0.000000
     3  H    0.000449  -0.000014  -0.000009   0.000006   0.000005   0.000000
     4  C    0.001391  -0.000013   0.000004   0.000003   0.000000   0.000000
     5  H   -0.000142  -0.000001   0.000000   0.000000   0.000000   0.000000
     6  N   -0.000890  -0.000015   0.000010   0.000002   0.000000   0.000000
     7  H    0.001905   0.000023   0.000043  -0.000025  -0.000008  -0.000003
     8  H    0.000195   0.000001   0.000000   0.000001   0.000000   0.000000
     9  H    0.000045  -0.000001   0.000000   0.000000   0.000000   0.000000
    10  C    0.084611   0.000925  -0.000226   0.000360  -0.000099  -0.000001
    11  H   -0.003557  -0.000002  -0.000020  -0.000050   0.000003   0.000002
    12  C   -0.293697   0.000192   0.001015  -0.022438   0.000365   0.000786
    13  C    0.248000  -0.000869   0.011935  -0.025616   0.000805  -0.000344
    14  H   -0.026190  -0.000061  -0.000593  -0.000041  -0.000078   0.000005
    15  O    0.004584   0.000153   0.000011  -0.000503  -0.000065   0.000071
    16  C    0.294526   0.066137  -0.003438  -0.035919  -0.007633  -0.006484
    17  C    1.187694  -0.027193   0.038668   0.093452   0.003032  -0.002732
    18  C   -4.315033  -0.070222  -0.455855   0.250380   0.016194   0.005927
    19  O    0.021397   0.003159   0.000218  -0.001644   0.000024   0.000053
    20  C   -3.211245  -0.026777  -0.000378  -0.278976   0.015510   0.009627
    21  C   -0.013153  -0.157003   0.158165   0.159979  -0.027110  -0.019957
    22  H   -0.098951  -0.004265  -0.016874   0.009083   0.000424  -0.000603
    23  H    0.002595   0.000126  -0.000177   0.000414  -0.000038  -0.000019
    24  H   -0.070496  -0.016681  -0.001728   0.005369   0.000871   0.000379
    25  C   11.479553   0.562440   0.135965  -0.401362  -0.010498   0.003305
    26  H    0.562440   0.499395  -0.012605  -0.014214  -0.009425  -0.010095
    27  O    0.135965  -0.012605   8.291455   0.184501  -0.040004  -0.039156
    28  C   -0.401362  -0.014214   0.184501   5.239911   0.398197   0.400809
    29  H   -0.010498  -0.009425  -0.040004   0.398197   0.572835  -0.062408
    30  H    0.003305  -0.010095  -0.039156   0.400809  -0.062408   0.571689
    31  H    0.002552   0.002918  -0.065251   0.398912  -0.024026  -0.022881
              31
     1  C   -0.000005
     2  H    0.000000
     3  H   -0.000001
     4  C    0.000001
     5  H    0.000000
     6  N    0.000001
     7  H    0.000006
     8  H    0.000000
     9  H    0.000000
    10  C    0.000069
    11  H   -0.000007
    12  C   -0.001404
    13  C   -0.000847
    14  H   -0.000036
    15  O    0.000014
    16  C    0.006288
    17  C    0.001254
    18  C   -0.000073
    19  O   -0.000039
    20  C   -0.014018
    21  C    0.041610
    22  H    0.000645
    23  H    0.000044
    24  H    0.000230
    25  C    0.002552
    26  H    0.002918
    27  O   -0.065251
    28  C    0.398912
    29  H   -0.024026
    30  H   -0.022881
    31  H    0.467862
 Mulliken charges:
               1
     1  C   -0.484007
     2  H    0.214758
     3  H    0.227274
     4  C   -0.389684
     5  H    0.215518
     6  N    0.158194
     7  H    0.196839
     8  H    0.172198
     9  H    0.188825
    10  C   -0.189347
    11  H    0.282947
    12  C   -0.388996
    13  C   -0.279509
    14  H    0.251682
    15  O   -0.130422
    16  C    0.952392
    17  C   -0.235700
    18  C   -0.698375
    19  O   -0.574102
    20  C   -0.333993
    21  C   -0.607848
    22  H    0.242676
    23  H    0.353642
    24  H    0.216039
    25  C    0.419916
    26  H    0.214007
    27  O   -0.185692
    28  C   -0.360563
    29  H    0.173126
    30  H    0.172027
    31  H    0.206179
 Sum of Mulliken charges =   0.00000
 Mulliken charges with hydrogens summed into heavy atoms:
               1
     1  C    0.154864
     4  C    0.186857
     6  N    0.158194
    10  C    0.093600
    12  C   -0.137314
    13  C   -0.279509
    15  O    0.223220
    16  C    0.952392
    17  C   -0.235700
    18  C   -0.455699
    19  O   -0.574102
    20  C   -0.117954
    21  C   -0.607848
    25  C    0.633923
    27  O   -0.185692
    28  C    0.190770
 Electronic spatial extent (au):  <R**2>=           5368.1519
 Charge=              0.0000 electrons
 Dipole moment (field-independent basis, Debye):
    X=             -9.9615    Y=             -7.0073    Z=              1.8657  Tot=             12.3213
 Quadrupole moment (field-independent basis, Debye-Ang):
   XX=            -37.6664   YY=           -112.9422   ZZ=            -90.3828
   XY=              3.6292   XZ=              1.9798   YZ=             11.5757
 Traceless Quadrupole moment (field-independent basis, Debye-Ang):
   XX=             42.6640   YY=            -32.6117   ZZ=            -10.0523
   XY=              3.6292   XZ=              1.9798   YZ=             11.5757
 Octapole moment (field-independent basis, Debye-Ang**2):
  XXX=           -162.6691  YYY=            -59.7673  ZZZ=             18.5932  XYY=            -13.4803
  XXY=            -34.9861  XXZ=            -36.0279  XZZ=            -19.1234  YZZ=             -1.1697
  YYZ=             14.5115  XYZ=             -9.8883
 Hexadecapole moment (field-independent basis, Debye-Ang**3):
 XXXX=          -3899.2412 YYYY=          -1056.0237 ZZZZ=           -496.3419 XXXY=            -54.8145
 XXXZ=              7.1857 YYYX=            -19.5421 YYYZ=             63.0104 ZZZX=             27.2190
 ZZZY=             46.4783 XXYY=          -1037.1790 XXZZ=           -980.4266 YYZZ=           -228.9071
 XXYZ=             55.2598 YYXZ=             15.9706 ZZXY=             14.8609
 N-N= 1.047795206281D+03 E-N=-3.838945645887D+03  KE= 7.435501368187D+02
 1\1\GINC-NXV31\FOpt\RwB97XD TD-FC\6-311++G(d,p)\C12H15N1O3\CA12053\28-
 Jul-2017\0\\# wb97xd 6-311++g** opt td=(nstates=1,root=1) SCRF=(PCM,so
 lvent=dichloromethane)\\Geom Opt s1\\0,1\C,-0.2607395119,0.9428167329,
 7.7783258218\H,0.5537267093,1.6547855709,7.9167968894\H,-1.0561770735,
 1.4300257269,7.1937036463\C,1.2057154281,0.0060619614,6.0617801781\H,0
 .7524872758,0.5381942708,5.2130124014\N,0.2507416968,-0.2434418735,7.1
 27779134\H,-0.6623312278,0.6909878562,8.7625136553\H,1.6073879761,-0.9
 415545781,5.6990159801\H,2.0345570992,0.6054011542,6.4442087183\C,-0.6
 118595806,-1.3061677138,6.9412592906\H,-0.1953468606,-2.119609962,6.35
 82406618\C,-1.869990542,-1.4260551785,7.4560094386\C,-2.6843723641,-2.
 5621914405,7.3105855323\H,-2.3155623984,-0.6073272647,8.0086705977\O,-
 2.1818715095,-3.6469340048,6.639249222\C,-4.0825779619,-2.6002947565,7
 .7378222144\C,-5.1011958418,-2.1605485807,6.792485305\C,-4.4482279736,
 -3.0374760758,8.995778248\O,-4.8041388107,-1.7804310217,5.6407926464\C
 ,-6.4736478252,-2.1874875509,7.2518703292\C,-5.7886030754,-3.053213574
 5,9.3921560703\H,-3.6968701471,-3.3672559565,9.7035683697\H,-2.8651734
 434,-4.3132222216,6.5455919759\H,-7.2370597739,-1.8479761258,6.5614161
 992\C,-6.8064906608,-2.6171774138,8.4992464914\H,-7.843887094,-2.62075
 19139,8.8062396166\O,-6.0287957724,-3.4891462045,10.6300729109\C,-7.36
 96517663,-3.5502239257,11.1127766042\H,-7.81886636,-2.5550668079,11.14
 37107322\H,-7.9737660708,-4.2200182445,10.4968945256\H,-7.2978305396,-
 3.9488818829,12.1213275932\\Version=ES64L-G09RevD.01\State=1-A\HF=-746
 .6102268\RMSD=7.358e-09\RMSF=6.091e-06\Dipole=-1.7162363,-0.2933363,2.
 201703\PG=C01 [X(C12H15N1O3)]\\@


 IT MATTERS NOT HOW DEEP YOU PLOW,
 BUT HOW LONG YOU STAY IN THE FURROW.
 Job cpu time:       1 days  8 hours 53 minutes 49.5 seconds.
 File lengths (MBytes):  RWF=    317 Int=      0 D2E=      0 Chk=     31 Scr=      1
 Normal termination of Gaussian 09 at Fri Jul 28 09:19:16 2017.
