 Entering Gaussian System, Link 0=g09
 Input=5_opt_DCM.com
 Output=5_opt_DCM.out
 Initial command:
 /share/apps/gaussian/g09_D01/g09/l1.exe "/tmp/101769.1.all.q/Gau-7707.inp" -scrdir="/tmp/101769.1.all.q/"
 Entering Link 1 = /share/apps/gaussian/g09_D01/g09/l1.exe PID=      7721.
  
 Copyright (c) 1988,1990,1992,1993,1995,1998,2003,2009,2013,
            Gaussian, Inc.  All Rights Reserved.
  
 This is part of the Gaussian(R) 09 program.  It is based on
 the Gaussian(R) 03 system (copyright 2003, Gaussian, Inc.),
 the Gaussian(R) 98 system (copyright 1998, Gaussian, Inc.),
 the Gaussian(R) 94 system (copyright 1995, Gaussian, Inc.),
 the Gaussian 92(TM) system (copyright 1992, Gaussian, Inc.),
 the Gaussian 90(TM) system (copyright 1990, Gaussian, Inc.),
 the Gaussian 88(TM) system (copyright 1988, Gaussian, Inc.),
 the Gaussian 86(TM) system (copyright 1986, Carnegie Mellon
 University), and the Gaussian 82(TM) system (copyright 1983,
 Carnegie Mellon University). Gaussian is a federally registered
 trademark of Gaussian, Inc.
  
 This software contains proprietary and confidential information,
 including trade secrets, belonging to Gaussian, Inc.
  
 This software is provided under written license and may be
 used, copied, transmitted, or stored only in accord with that
 written license.
  
 The following legend is applicable only to US Government
 contracts under FAR:
  
                    RESTRICTED RIGHTS LEGEND
  
 Use, reproduction and disclosure by the US Government is
 subject to restrictions as set forth in subparagraphs (a)
 and (c) of the Commercial Computer Software - Restricted
 Rights clause in FAR 52.227-19.
  
 Gaussian, Inc.
 340 Quinnipiac St., Bldg. 40, Wallingford CT 06492
  
  
 ---------------------------------------------------------------
 Warning -- This program may not be used in any manner that
 competes with the business of Gaussian, Inc. or will provide
 assistance to any competitor of Gaussian, Inc.  The licensee
 of this program is prohibited from giving any competitor of
 Gaussian, Inc. access to this program.  By using this program,
 the user acknowledges that Gaussian, Inc. is engaged in the
 business of creating and licensing software in the field of
 computational chemistry and represents and warrants to the
 licensee that it is not a competitor of Gaussian, Inc. and that
 it will not use this program in any manner prohibited above.
 ---------------------------------------------------------------
  

 Cite this work as:
 Gaussian 09, Revision D.01,
 M. J. Frisch, G. W. Trucks, H. B. Schlegel, G. E. Scuseria, 
 M. A. Robb, J. R. Cheeseman, G. Scalmani, V. Barone, B. Mennucci, 
 G. A. Petersson, H. Nakatsuji, M. Caricato, X. Li, H. P. Hratchian, 
 A. F. Izmaylov, J. Bloino, G. Zheng, J. L. Sonnenberg, M. Hada, 
 M. Ehara, K. Toyota, R. Fukuda, J. Hasegawa, M. Ishida, T. Nakajima, 
 Y. Honda, O. Kitao, H. Nakai, T. Vreven, J. A. Montgomery, Jr., 
 J. E. Peralta, F. Ogliaro, M. Bearpark, J. J. Heyd, E. Brothers, 
 K. N. Kudin, V. N. Staroverov, T. Keith, R. Kobayashi, J. Normand, 
 K. Raghavachari, A. Rendell, J. C. Burant, S. S. Iyengar, J. Tomasi, 
 M. Cossi, N. Rega, J. M. Millam, M. Klene, J. E. Knox, J. B. Cross, 
 V. Bakken, C. Adamo, J. Jaramillo, R. Gomperts, R. E. Stratmann, 
 O. Yazyev, A. J. Austin, R. Cammi, C. Pomelli, J. W. Ochterski, 
 R. L. Martin, K. Morokuma, V. G. Zakrzewski, G. A. Voth, 
 P. Salvador, J. J. Dannenberg, S. Dapprich, A. D. Daniels, 
 O. Farkas, J. B. Foresman, J. V. Ortiz, J. Cioslowski, 
 and D. J. Fox, Gaussian, Inc., Wallingford CT, 2013.
 
 ******************************************
 Gaussian 09:  ES64L-G09RevD.01 24-Apr-2013
                27-Jul-2017 
 ******************************************
 %chk=5_opt_DCM.chk
 %mem=28GB
 %nproc=4
 Will use up to    4 processors via shared memory.
 ----------------------------------------------------------
 # wb97xd 6-311++g** opt SCRF=(PCM,solvent=dichloromethane)
 ----------------------------------------------------------
 1/14=-1,18=20,19=15,26=3,38=1/1,3;
 2/9=110,12=2,17=6,18=5,40=1/2;
 3/5=4,6=6,7=1111,11=2,16=1,25=1,30=1,70=2201,71=1,72=9,74=-58/1,2,3;
 4//1;
 5/5=2,38=5,53=9/2;
 6/7=2,8=2,9=2,10=2,28=1/1;
 7//1,2,3,16;
 1/14=-1,18=20,19=15,26=3/3(2);
 2/9=110/2;
 99//99;
 2/9=110/2;
 3/5=4,6=6,7=1111,11=2,16=1,25=1,30=1,70=2205,71=1,72=9,74=-58/1,2,3;
 4/5=5,16=3,69=1/1;
 5/5=2,38=5,53=9/2;
 7//1,2,3,16;
 1/14=-1,18=20,19=15,26=3/3(-5);
 2/9=110/2;
 6/7=2,8=2,9=2,10=2,19=2,28=1/1;
 99/9=1/99;
 -----------
 Geom Opt s0
 -----------
 Symbolic Z-matrix:
 Charge =  0 Multiplicity = 1
 C                    -0.0607    0.34566   8.5644 
 H                     0.88016   0.82169   8.83955 
 H                    -0.84439   1.11125   8.52268 
 C                     1.2762   -0.01305   6.50273 
 H                     1.30325   1.04581   6.22195 
 N                     0.09513  -0.31779   7.28637 
 H                    -0.32385  -0.37883   9.34085 
 H                     1.27454  -0.61069   5.59149 
 H                     2.18255  -0.24734   7.06879 
 C                    -0.90113  -1.0657    6.78686 
 H                    -0.71316  -1.51353   5.81528 
 C                    -2.10357  -1.32233   7.37085 
 C                    -3.04207  -2.17192   6.66512 
 H                    -2.36706  -0.8877    8.32266 
 O                    -2.76096  -2.64555   5.54988 
 C                    -4.36909  -2.47572   7.26372 
 C                    -5.31432  -3.20937   6.51324 
 C                    -4.72447  -2.06245   8.55768 
 O                    -5.06755  -3.66888   5.28301 
 C                    -6.57653  -3.47263   7.05947 
 C                    -5.96627  -2.33587   9.08927 
 H                    -4.02986  -1.51319   9.17937 
 H                    -4.13894  -3.41196   5.07446 
 H                    -7.28858  -4.02096   6.45452 
 C                    -6.90335  -3.03773   8.32642 
 H                    -7.89186  -3.23205   8.72767 
 O                    -6.26672  -1.86091   10.344 
 C                    -6.55135  -2.85855   11.30656 
 H                    -7.45406  -3.4263    11.05382 
 H                    -5.70998  -3.55446   11.40697 
 H                    -6.71244  -2.34317   12.25325 
 

 GradGradGradGradGradGradGradGradGradGradGradGradGradGradGradGradGradGrad
 Berny optimization.
 Initialization pass.
                           ----------------------------
                           !    Initial Parameters    !
                           ! (Angstroms and Degrees)  !
 --------------------------                            --------------------------
 ! Name  Definition              Value          Derivative Info.                !
 --------------------------------------------------------------------------------
 ! R1    R(1,2)                  1.0897         estimate D2E/DX2                !
 ! R2    R(1,3)                  1.0964         estimate D2E/DX2                !
 ! R3    R(1,6)                  1.4484         estimate D2E/DX2                !
 ! R4    R(1,7)                  1.0941         estimate D2E/DX2                !
 ! R5    R(4,5)                  1.0958         estimate D2E/DX2                !
 ! R6    R(4,6)                  1.4498         estimate D2E/DX2                !
 ! R7    R(4,8)                  1.0897         estimate D2E/DX2                !
 ! R8    R(4,9)                  1.094          estimate D2E/DX2                !
 ! R9    R(6,10)                 1.3422         estimate D2E/DX2                !
 ! R10   R(10,11)                1.0862         estimate D2E/DX2                !
 ! R11   R(10,12)                1.3612         estimate D2E/DX2                !
 ! R12   R(12,13)                1.4494         estimate D2E/DX2                !
 ! R13   R(12,14)                1.079          estimate D2E/DX2                !
 ! R14   R(13,15)                1.2438         estimate D2E/DX2                !
 ! R15   R(13,16)                1.4871         estimate D2E/DX2                !
 ! R16   R(16,17)                1.4124         estimate D2E/DX2                !
 ! R17   R(16,18)                1.4041         estimate D2E/DX2                !
 ! R18   R(17,19)                1.3362         estimate D2E/DX2                !
 ! R19   R(17,20)                1.4003         estimate D2E/DX2                !
 ! R20   R(18,21)                1.3782         estimate D2E/DX2                !
 ! R21   R(18,22)                1.082          estimate D2E/DX2                !
 ! R22   R(19,23)                0.9858         estimate D2E/DX2                !
 ! R23   R(20,24)                1.0833         estimate D2E/DX2                !
 ! R24   R(20,25)                1.3788         estimate D2E/DX2                !
 ! R25   R(21,25)                1.3974         estimate D2E/DX2                !
 ! R26   R(21,27)                1.3748         estimate D2E/DX2                !
 ! R27   R(25,26)                1.0844         estimate D2E/DX2                !
 ! R28   R(27,28)                1.4152         estimate D2E/DX2                !
 ! R29   R(28,29)                1.096          estimate D2E/DX2                !
 ! R30   R(28,30)                1.0965         estimate D2E/DX2                !
 ! R31   R(28,31)                1.0899         estimate D2E/DX2                !
 ! A1    A(2,1,3)              108.7672         estimate D2E/DX2                !
 ! A2    A(2,1,6)              109.2684         estimate D2E/DX2                !
 ! A3    A(2,1,7)              108.5261         estimate D2E/DX2                !
 ! A4    A(3,1,6)              111.2964         estimate D2E/DX2                !
 ! A5    A(3,1,7)              108.5108         estimate D2E/DX2                !
 ! A6    A(6,1,7)              110.4118         estimate D2E/DX2                !
 ! A7    A(5,4,6)              111.2058         estimate D2E/DX2                !
 ! A8    A(5,4,8)              108.4042         estimate D2E/DX2                !
 ! A9    A(5,4,9)              108.6075         estimate D2E/DX2                !
 ! A10   A(6,4,8)              109.6009         estimate D2E/DX2                !
 ! A11   A(6,4,9)              110.5012         estimate D2E/DX2                !
 ! A12   A(8,4,9)              108.4505         estimate D2E/DX2                !
 ! A13   A(1,6,4)              117.9249         estimate D2E/DX2                !
 ! A14   A(1,6,10)             120.2508         estimate D2E/DX2                !
 ! A15   A(4,6,10)             121.3763         estimate D2E/DX2                !
 ! A16   A(6,10,11)            115.7334         estimate D2E/DX2                !
 ! A17   A(6,10,12)            126.9487         estimate D2E/DX2                !
 ! A18   A(11,10,12)           117.3167         estimate D2E/DX2                !
 ! A19   A(10,12,13)           118.2697         estimate D2E/DX2                !
 ! A20   A(10,12,14)           121.2148         estimate D2E/DX2                !
 ! A21   A(13,12,14)           120.498          estimate D2E/DX2                !
 ! A22   A(12,13,15)           120.8942         estimate D2E/DX2                !
 ! A23   A(12,13,16)           120.1033         estimate D2E/DX2                !
 ! A24   A(15,13,16)           118.9982         estimate D2E/DX2                !
 ! A25   A(13,16,17)           119.3017         estimate D2E/DX2                !
 ! A26   A(13,16,18)           122.4577         estimate D2E/DX2                !
 ! A27   A(17,16,18)           118.2404         estimate D2E/DX2                !
 ! A28   A(16,17,19)           122.9716         estimate D2E/DX2                !
 ! A29   A(16,17,20)           119.5788         estimate D2E/DX2                !
 ! A30   A(19,17,20)           117.4485         estimate D2E/DX2                !
 ! A31   A(16,18,21)           121.6773         estimate D2E/DX2                !
 ! A32   A(16,18,22)           121.0949         estimate D2E/DX2                !
 ! A33   A(21,18,22)           117.2277         estimate D2E/DX2                !
 ! A34   A(17,19,23)           106.2071         estimate D2E/DX2                !
 ! A35   A(17,20,24)           118.0201         estimate D2E/DX2                !
 ! A36   A(17,20,25)           120.8496         estimate D2E/DX2                !
 ! A37   A(24,20,25)           121.1288         estimate D2E/DX2                !
 ! A38   A(18,21,25)           119.5581         estimate D2E/DX2                !
 ! A39   A(18,21,27)           118.7107         estimate D2E/DX2                !
 ! A40   A(25,21,27)           121.6811         estimate D2E/DX2                !
 ! A41   A(20,25,21)           120.0732         estimate D2E/DX2                !
 ! A42   A(20,25,26)           119.9702         estimate D2E/DX2                !
 ! A43   A(21,25,26)           119.9539         estimate D2E/DX2                !
 ! A44   A(21,27,28)           114.9072         estimate D2E/DX2                !
 ! A45   A(27,28,29)           111.9628         estimate D2E/DX2                !
 ! A46   A(27,28,30)           110.8154         estimate D2E/DX2                !
 ! A47   A(27,28,31)           106.6894         estimate D2E/DX2                !
 ! A48   A(29,28,30)           108.927          estimate D2E/DX2                !
 ! A49   A(29,28,31)           108.8778         estimate D2E/DX2                !
 ! A50   A(30,28,31)           109.5116         estimate D2E/DX2                !
 ! D1    D(2,1,6,4)            -12.8316         estimate D2E/DX2                !
 ! D2    D(2,1,6,10)           174.7423         estimate D2E/DX2                !
 ! D3    D(3,1,6,4)            107.305          estimate D2E/DX2                !
 ! D4    D(3,1,6,10)           -65.1212         estimate D2E/DX2                !
 ! D5    D(7,1,6,4)           -132.1215         estimate D2E/DX2                !
 ! D6    D(7,1,6,10)            55.4523         estimate D2E/DX2                !
 ! D7    D(5,4,6,1)            -62.2711         estimate D2E/DX2                !
 ! D8    D(5,4,6,10)           110.0652         estimate D2E/DX2                !
 ! D9    D(8,4,6,1)            177.8845         estimate D2E/DX2                !
 ! D10   D(8,4,6,10)            -9.7791         estimate D2E/DX2                !
 ! D11   D(9,4,6,1)             58.4243         estimate D2E/DX2                !
 ! D12   D(9,4,6,10)          -129.2393         estimate D2E/DX2                !
 ! D13   D(1,6,10,11)          178.8496         estimate D2E/DX2                !
 ! D14   D(1,6,10,12)           -1.5669         estimate D2E/DX2                !
 ! D15   D(4,6,10,11)            6.6894         estimate D2E/DX2                !
 ! D16   D(4,6,10,12)         -173.7271         estimate D2E/DX2                !
 ! D17   D(6,10,12,13)        -179.381          estimate D2E/DX2                !
 ! D18   D(6,10,12,14)           2.1341         estimate D2E/DX2                !
 ! D19   D(11,10,12,13)          0.1967         estimate D2E/DX2                !
 ! D20   D(11,10,12,14)       -178.2882         estimate D2E/DX2                !
 ! D21   D(10,12,13,15)         -0.581          estimate D2E/DX2                !
 ! D22   D(10,12,13,16)       -179.8184         estimate D2E/DX2                !
 ! D23   D(14,12,13,15)        177.9152         estimate D2E/DX2                !
 ! D24   D(14,12,13,16)         -1.3222         estimate D2E/DX2                !
 ! D25   D(12,13,16,17)        174.5967         estimate D2E/DX2                !
 ! D26   D(12,13,16,18)         -5.5528         estimate D2E/DX2                !
 ! D27   D(15,13,16,17)         -4.6551         estimate D2E/DX2                !
 ! D28   D(15,13,16,18)        175.1955         estimate D2E/DX2                !
 ! D29   D(13,16,17,19)          1.0563         estimate D2E/DX2                !
 ! D30   D(13,16,17,20)       -178.5611         estimate D2E/DX2                !
 ! D31   D(18,16,17,19)       -178.8006         estimate D2E/DX2                !
 ! D32   D(18,16,17,20)          1.5821         estimate D2E/DX2                !
 ! D33   D(13,16,18,21)        179.0263         estimate D2E/DX2                !
 ! D34   D(13,16,18,22)         -0.9359         estimate D2E/DX2                !
 ! D35   D(17,16,18,21)         -1.1217         estimate D2E/DX2                !
 ! D36   D(17,16,18,22)        178.9161         estimate D2E/DX2                !
 ! D37   D(16,17,19,23)          1.6513         estimate D2E/DX2                !
 ! D38   D(20,17,19,23)       -178.7237         estimate D2E/DX2                !
 ! D39   D(16,17,20,24)        178.8446         estimate D2E/DX2                !
 ! D40   D(16,17,20,25)         -0.728          estimate D2E/DX2                !
 ! D41   D(19,17,20,24)         -0.7936         estimate D2E/DX2                !
 ! D42   D(19,17,20,25)        179.6338         estimate D2E/DX2                !
 ! D43   D(16,18,21,25)         -0.2243         estimate D2E/DX2                !
 ! D44   D(16,18,21,27)       -177.6933         estimate D2E/DX2                !
 ! D45   D(22,18,21,25)        179.7393         estimate D2E/DX2                !
 ! D46   D(22,18,21,27)          2.2702         estimate D2E/DX2                !
 ! D47   D(17,20,25,21)         -0.6429         estimate D2E/DX2                !
 ! D48   D(17,20,25,26)        178.7604         estimate D2E/DX2                !
 ! D49   D(24,20,25,21)        179.7979         estimate D2E/DX2                !
 ! D50   D(24,20,25,26)         -0.7988         estimate D2E/DX2                !
 ! D51   D(18,21,25,20)          1.1215         estimate D2E/DX2                !
 ! D52   D(18,21,25,26)       -178.2819         estimate D2E/DX2                !
 ! D53   D(27,21,25,20)        178.5129         estimate D2E/DX2                !
 ! D54   D(27,21,25,26)         -0.8904         estimate D2E/DX2                !
 ! D55   D(18,21,27,28)       -118.6257         estimate D2E/DX2                !
 ! D56   D(25,21,27,28)         63.9614         estimate D2E/DX2                !
 ! D57   D(21,27,28,29)        -64.1365         estimate D2E/DX2                !
 ! D58   D(21,27,28,30)         57.6988         estimate D2E/DX2                !
 ! D59   D(21,27,28,31)        176.8433         estimate D2E/DX2                !
 --------------------------------------------------------------------------------
 Trust Radius=3.00D-01 FncErr=1.00D-07 GrdErr=1.00D-06
 Number of steps in this run=    150 maximum allowed number of steps=    186.
 GradGradGradGradGradGradGradGradGradGradGradGradGradGradGradGradGradGrad

                          Input orientation:                          
 ---------------------------------------------------------------------
 Center     Atomic      Atomic             Coordinates (Angstroms)
 Number     Number       Type             X           Y           Z
 ---------------------------------------------------------------------
      1          6           0       -0.060702    0.345663    8.564402
      2          1           0        0.880164    0.821688    8.839551
      3          1           0       -0.844388    1.111252    8.522682
      4          6           0        1.276203   -0.013048    6.502729
      5          1           0        1.303248    1.045812    6.221950
      6          7           0        0.095132   -0.317789    7.286374
      7          1           0       -0.323853   -0.378829    9.340855
      8          1           0        1.274544   -0.610692    5.591489
      9          1           0        2.182551   -0.247338    7.068790
     10          6           0       -0.901131   -1.065699    6.786855
     11          1           0       -0.713160   -1.513526    5.815280
     12          6           0       -2.103565   -1.322327    7.370854
     13          6           0       -3.042069   -2.171915    6.665122
     14          1           0       -2.367063   -0.887699    8.322662
     15          8           0       -2.760962   -2.645546    5.549876
     16          6           0       -4.369086   -2.475719    7.263723
     17          6           0       -5.314324   -3.209368    6.513238
     18          6           0       -4.724468   -2.062452    8.557680
     19          8           0       -5.067546   -3.668883    5.283011
     20          6           0       -6.576530   -3.472634    7.059469
     21          6           0       -5.966268   -2.335868    9.089272
     22          1           0       -4.029863   -1.513192    9.179372
     23          1           0       -4.138939   -3.411960    5.074462
     24          1           0       -7.288580   -4.020957    6.454516
     25          6           0       -6.903347   -3.037726    8.326416
     26          1           0       -7.891858   -3.232053    8.727670
     27          8           0       -6.266718   -1.860906   10.343997
     28          6           0       -6.551354   -2.858545   11.306560
     29          1           0       -7.454064   -3.426301   11.053821
     30          1           0       -5.709982   -3.554455   11.406967
     31          1           0       -6.712439   -2.343172   12.253253
 ---------------------------------------------------------------------
                    Distance matrix (angstroms):
                    1          2          3          4          5
     1  C    0.000000
     2  H    1.089741   0.000000
     3  H    1.096372   1.777170   0.000000
     4  C    2.483241   2.512841   3.137063   0.000000
     5  H    2.799580   2.661027   3.148014   1.095789   0.000000
     6  N    1.448381   2.080154   2.110288   1.449791   2.109965
     7  H    1.094082   1.772626   1.777837   3.278557   3.795343
     8  H    3.396426   3.571716   4.005853   1.089743   1.772656
     9  H    2.760560   2.444304   3.622420   1.093976   1.778356
    10  C    2.420318   3.308897   2.784857   2.435074   3.104333
    11  H    3.382301   4.139821   3.773156   2.584876   3.283518
    12  C    2.894829   3.956831   2.972296   3.727021   4.305164
    13  C    4.339817   5.392004   4.365721   4.830585   5.425122
    14  H    2.626580   3.705895   2.520784   4.165400   4.650015
    15  O    5.032505   6.008450   5.159880   4.912909   5.531330
    16  C    5.311698   6.396151   5.184094   6.205896   6.757355
    17  C    6.666788   7.748085   6.533449   7.324726   7.872971
    18  C    5.248788   6.309486   5.012848   6.665653   7.172886
    19  O    7.207815   8.257691   7.154035   7.422668   7.981038
    20  C    7.700664   8.787046   7.484013   8.599076   9.121880
    21  C    6.507058   7.543617   6.199783   8.033622   8.514879
    22  H    4.425807   5.447523   4.179258   6.129371   6.613389
    23  H    6.552208   7.569086   6.572955   6.551054   7.127823
    24  H    8.704092   9.791220   8.493791   9.456277   9.977261
    25  C    7.637130   8.702955   7.345987   8.909520   9.404906
    26  H    8.611255   9.664042   8.280891   9.968234  10.446470
    27  O    6.822796   7.780591   6.446129   8.664039   9.096410
    28  C    7.740474   8.652035   7.488573   9.614796  10.138641
    29  H    8.665259   9.612895   8.407370  10.420187  10.956153
    30  H    7.430038   8.316987   7.332253   9.241206   9.860642
    31  H    8.067407   8.906027   7.764292  10.115157  10.588346
                    6          7          8          9         10
     6  N    0.000000
     7  H    2.097657   0.000000
     8  H    2.085531   4.082448   0.000000
     9  H    2.099911   3.385503   1.771700   0.000000
    10  C    1.342173   2.707020   2.523785   3.202858   0.000000
    11  H    2.060883   3.724081   2.194575   3.399950   1.086204
    12  C    2.418781   2.817529   3.883836   4.429180   1.361161
    13  C    3.696724   4.214665   4.714155   5.582437   2.412913
    14  H    2.731500   2.338883   4.560410   4.762483   2.130574
    15  O    4.073224   5.044703   4.519698   5.700598   2.735874
    16  C    4.958469   5.007528   6.174565   6.922978   3.773893
    17  C    6.182328   6.396262   7.142543   8.079938   4.913904
    18  C    5.280967   4.776334   6.847922   7.295090   4.329809
    19  O    6.472754   7.056428   7.047680   8.213397   5.137814
    20  C    7.383468   7.339777   8.484400   9.334030   6.170722
    21  C    6.638046   5.977470   8.224359   8.651448   5.707019
    22  H    4.693401   3.879093   6.467159   6.682143   3.964007
    23  H    5.691556   6.477413   6.117207   7.345299   4.349785
    24  H    8.302087   8.372782   9.257528  10.213709   7.045815
    25  C    7.580135   7.168582   8.958137   9.587566   6.502748
    26  H    8.623357   8.111201  10.036438  10.637393   7.571665
    27  O    7.225192   6.206488   9.001111   9.204386   6.486535
    28  C    8.172705   6.985324   9.947842  10.052770   7.454331
    29  H    8.991488   7.941111  10.674892  10.901863   8.168254
    30  H    7.820143   6.585120   9.553488   9.594211   7.117892
    31  H    8.666896   7.290729  10.543836  10.506761   8.079898
                   11         12         13         14         15
    11  H    0.000000
    12  C    2.095136   0.000000
    13  C    2.565058   1.449361   0.000000
    14  H    3.068227   1.079014   2.202790   0.000000
    15  O    2.354868   2.345003   1.243833   3.306588   0.000000
    16  C    4.048407   2.544479   1.487143   2.766090   2.356305
    17  C    4.953154   3.821701   2.502503   4.165394   2.786686
    18  C    4.890058   2.970770   2.534605   2.644359   3.638989
    19  O    4.887694   4.318634   2.872926   4.926162   2.537472
    20  C    6.305967   4.972745   3.786792   5.098741   4.185870
    21  C    6.244230   4.347494   3.801884   3.954638   4.785103
    22  H    4.724154   2.649111   2.780487   1.972333   4.008189
    23  H    3.986079   3.712510   2.295873   4.479089   1.646885
    24  H    7.066257   5.916643   4.636396   6.126059   4.817619
    25  C    6.851818   5.185904   4.291736   5.020010   5.002233
    26  H    7.935304   6.244385   5.375728   6.015263   6.063700
    27  O    7.174396   5.144073   4.901960   4.498915   5.990791
    28  C    8.126976   6.134539   5.859137   5.504196   6.895785
    29  H    8.748760   6.827796   6.348217   6.307243   7.275177
    30  H    7.771781   5.854814   5.613757   5.272536   6.620298
    31  H    8.838957   6.791293   6.687911   6.037403   7.787224
                   16         17         18         19         20
    16  C    0.000000
    17  C    1.412425   0.000000
    18  C    1.404069   2.417248   0.000000
    19  O    2.415514   1.336230   3.663575   0.000000
    20  C    2.430714   1.400300   2.768282   2.339092   0.000000
    21  C    2.429646   2.797139   1.378192   4.131858   2.405152
    22  H    2.170539   3.411030   1.081972   4.572244   3.849534
    23  H    2.392149   1.868863   3.781114   0.985806   3.144167
    24  H    3.400885   2.135372   3.851456   2.535621   1.083347
    25  C    2.804933   2.417037   2.398365   3.609825   1.378807
    26  H    3.889101   3.398221   3.380713   4.475850   2.137957
    27  O    3.669753   4.171345   2.368562   5.506394   3.671754
    28  C    4.610139   4.962787   3.395235   6.256315   4.291331
    29  H    4.978508   5.024186   3.942271   6.249525   4.089873
    30  H    4.486440   4.921810   3.363889   6.158624   4.433773
    31  H    5.514008   5.970996   4.205721   7.283368   5.316912
                   21         22         23         24         25
    21  C    0.000000
    22  H    2.105844   0.000000
    23  H    4.540463   4.524103   0.000000
    24  H    3.395581   4.932845   3.492229   0.000000
    25  C    1.397380   3.362833   4.284531   2.149222   0.000000
    26  H    2.154484   4.251297   5.240486   2.480634   1.084399
    27  O    1.374843   2.545737   5.890773   4.564875   2.420916
    28  C    2.351996   3.562698   6.705599   5.043514   3.006204
    29  H    2.694816   4.347263   6.836885   4.640540   2.809452
    30  H    2.631035   3.457128   6.526033   5.218847   3.343789
    31  H    3.250785   4.163391   7.700666   6.064013   3.992355
                   26         27         28         29         30
    26  H    0.000000
    27  O    2.670887   0.000000
    28  C    2.930381   1.415213   0.000000
    29  H    2.374947   2.089043   1.095951   0.000000
    30  H    3.470325   2.075565   1.096485   1.784085   0.000000
    31  H    3.822417   2.019036   1.089856   1.778149   1.785589
                   31
    31  H    0.000000
 Stoichiometry    C12H15NO3
 Framework group  C1[X(C12H15NO3)]
 Deg. of freedom    87
 Full point group                 C1      NOp   1
 Largest Abelian subgroup         C1      NOp   1
 Largest concise Abelian subgroup C1      NOp   1
                         Standard orientation:                         
 ---------------------------------------------------------------------
 Center     Atomic      Atomic             Coordinates (Angstroms)
 Number     Number       Type             X           Y           Z
 ---------------------------------------------------------------------
      1          6           0       -3.781681   -2.076392   -0.193014
      2          1           0       -4.725608   -2.615079   -0.113305
      3          1           0       -3.357384   -2.253595   -1.188304
      4          6           0       -5.387191   -0.195120    0.029780
      5          1           0       -5.857219   -0.355547   -0.946995
      6          7           0       -4.015817   -0.665434    0.035430
      7          1           0       -3.089972   -2.474478    0.555372
      8          1           0       -5.408696    0.871741    0.250879
      9          1           0       -5.974752   -0.718172    0.790025
     10          6           0       -2.983695    0.190631    0.092925
     11          1           0       -3.244177    1.233686    0.247928
     12          6           0       -1.661317   -0.113724   -0.014060
     13          6           0       -0.698215    0.964401    0.089522
     14          1           0       -1.333293   -1.125441   -0.195995
     15          8           0       -1.070269    2.138874    0.260725
     16          6           0        0.756655    0.678525   -0.025465
     17          6           0        1.673419    1.752930   -0.037335
     18          6           0        1.262709   -0.627714   -0.120644
     19          8           0        1.297761    3.030664    0.071239
     20          6           0        3.042227    1.492109   -0.175818
     21          6           0        2.612980   -0.873374   -0.246467
     22          1           0        0.603467   -1.485370   -0.098493
     23          1           0        0.318029    3.021117    0.180084
     24          1           0        3.721131    2.335971   -0.200885
     25          6           0        3.508010    0.199028   -0.285793
     26          1           0        4.569016    0.014379   -0.412656
     27          8           0        3.037768   -2.173782   -0.383175
     28          6           0        3.892959   -2.632834    0.646751
     29          1           0        4.840674   -2.082846    0.668188
     30          1           0        3.407233   -2.542720    1.625643
     31          1           0        4.099029   -3.682452    0.437890
 ---------------------------------------------------------------------
 Rotational constants (GHZ):      0.8228801      0.2621255      0.2017187
 Standard basis: 6-311++G(d,p) (5D, 7F)
 There are   473 symmetry adapted cartesian basis functions of A   symmetry.
 There are   457 symmetry adapted basis functions of A   symmetry.
   457 basis functions,   711 primitive gaussians,   473 cartesian basis functions
    59 alpha electrons       59 beta electrons
       nuclear repulsion energy      1054.6761902246 Hartrees.
 NAtoms=   31 NActive=   31 NUniq=   31 SFac= 1.00D+00 NAtFMM=   60 NAOKFM=F Big=F
 Integral buffers will be    131072 words long.
 Raffenetti 2 integral format.
 Two-electron integral symmetry is turned on.
 Nuclear repulsion after empirical dispersion term =     1054.6583384616 Hartrees.
 ------------------------------------------------------------------------------
 Polarizable Continuum Model (PCM)
 =================================
 Model                : PCM (using non-symmetric T matrix).
 Atomic radii         : UFF (Universal Force Field).
 Polarization charges : Total charges.
 Charge compensation  : None.
 Solution method      : On-the-fly selection.
 Cavity type          : Scaled VdW (van der Waals Surface) (Alpha=1.100).
 Cavity algorithm     : GePol (No added spheres)
                        Default sphere list used, NSphG=   31.
                        Lebedev-Laikov grids with approx.  5.0 points / Ang**2.
                        Smoothing algorithm: Karplus/York (Gamma=1.0000).
                        Polarization charges: spherical gaussians, with
                                              point-specific exponents (IZeta= 3).
                        Self-potential: point-specific (ISelfS= 7).
                        Self-field    : sphere-specific E.n sum rule (ISelfD= 2).
 1st derivatives      : Analytical E(r).r(x)/FMM algorithm (CHGder, D1EAlg=3).
                        Cavity 1st derivative terms included.
 Solvent              : Dichloromethane, Eps=   8.930000 Eps(inf)=   2.028346
 ------------------------------------------------------------------------------
 One-electron integrals computed using PRISM.
 NBasis=   457 RedAO= T EigKep=  1.40D-06  NBF=   457
 NBsUse=   454 1.00D-06 EigRej=  7.17D-07 NBFU=   454
 ExpMin= 3.60D-02 ExpMax= 8.59D+03 ExpMxC= 1.30D+03 IAcc=3 IRadAn=         5 AccDes= 0.00D+00
 Harris functional with IExCor= 4639 and IRadAn=       5 diagonalized for initial guess.
 HarFok:  IExCor= 4639 AccDes= 0.00D+00 IRadAn=         5 IDoV= 1 UseB2=F ITyADJ=14
 ICtDFT=  3500011 ScaDFX=  1.000000  1.000000  1.000000  1.000000
 FoFCou: FMM=F IPFlag=           0 FMFlag=      100000 FMFlg1=           0
         NFxFlg=           0 DoJE=T BraDBF=F KetDBF=T FulRan=T
         wScrn=  0.000000 ICntrl=     500 IOpCl=  0 I1Cent=   200000004 NGrid=           0
         NMat0=    1 NMatS0=      1 NMatT0=    0 NMatD0=    1 NMtDS0=    0 NMtDT0=    0
 Petite list used in FoFCou.
 Requested convergence on RMS density matrix=1.00D-08 within 128 cycles.
 Requested convergence on MAX density matrix=1.00D-06.
 Requested convergence on             energy=1.00D-06.
 No special actions if energy rises.
 Inv3:  Mode=1 IEnd=    16737132.
 Iteration    1 A*A^-1 deviation from unit magnitude is 5.77D-15 for   2356.
 Iteration    1 A*A^-1 deviation from orthogonality  is 2.39D-15 for   1433    223.
 Iteration    1 A^-1*A deviation from unit magnitude is 6.22D-15 for    567.
 Iteration    1 A^-1*A deviation from orthogonality  is 4.70D-12 for   2293   2276.
 Error on total polarization charges =  0.01425
 SCF Done:  E(RwB97XD) =  -746.679792525     A.U. after   17 cycles
            NFock= 17  Conv=0.43D-08     -V/T= 2.0039

 **********************************************************************

            Population analysis using the SCF density.

 **********************************************************************

 Orbital symmetries:
       Occupied  (A) (A) (A) (A) (A) (A) (A) (A) (A) (A) (A) (A)
                 (A) (A) (A) (A) (A) (A) (A) (A) (A) (A) (A) (A)
                 (A) (A) (A) (A) (A) (A) (A) (A) (A) (A) (A) (A)
                 (A) (A) (A) (A) (A) (A) (A) (A) (A) (A) (A) (A)
                 (A) (A) (A) (A) (A) (A) (A) (A) (A) (A) (A)
       Virtual   (A) (A) (A) (A) (A) (A) (A) (A) (A) (A) (A) (A)
                 (A) (A) (A) (A) (A) (A) (A) (A) (A) (A) (A) (A)
                 (A) (A) (A) (A) (A) (A) (A) (A) (A) (A) (A) (A)
                 (A) (A) (A) (A) (A) (A) (A) (A) (A) (A) (A) (A)
                 (A) (A) (A) (A) (A) (A) (A) (A) (A) (A) (A) (A)
                 (A) (A) (A) (A) (A) (A) (A) (A) (A) (A) (A) (A)
                 (A) (A) (A) (A) (A) (A) (A) (A) (A) (A) (A) (A)
                 (A) (A) (A) (A) (A) (A) (A) (A) (A) (A) (A) (A)
                 (A) (A) (A) (A) (A) (A) (A) (A) (A) (A) (A) (A)
                 (A) (A) (A) (A) (A) (A) (A) (A) (A) (A) (A) (A)
                 (A) (A) (A) (A) (A) (A) (A) (A) (A) (A) (A) (A)
                 (A) (A) (A) (A) (A) (A) (A) (A) (A) (A) (A) (A)
                 (A) (A) (A) (A) (A) (A) (A) (A) (A) (A) (A) (A)
                 (A) (A) (A) (A) (A) (A) (A) (A) (A) (A) (A) (A)
                 (A) (A) (A) (A) (A) (A) (A) (A) (A) (A) (A) (A)
                 (A) (A) (A) (A) (A) (A) (A) (A) (A) (A) (A) (A)
                 (A) (A) (A) (A) (A) (A) (A) (A) (A) (A) (A) (A)
                 (A) (A) (A) (A) (A) (A) (A) (A) (A) (A) (A) (A)
                 (A) (A) (A) (A) (A) (A) (A) (A) (A) (A) (A) (A)
                 (A) (A) (A) (A) (A) (A) (A) (A) (A) (A) (A) (A)
                 (A) (A) (A) (A) (A) (A) (A) (A) (A) (A) (A) (A)
                 (A) (A) (A) (A) (A) (A) (A) (A) (A) (A) (A) (A)
                 (A) (A) (A) (A) (A) (A) (A) (A) (A) (A) (A) (A)
                 (A) (A) (A) (A) (A) (A) (A) (A) (A) (A) (A) (A)
                 (A) (A) (A) (A) (A) (A) (A) (A) (A) (A) (A) (A)
                 (A) (A) (A) (A) (A) (A) (A) (A) (A) (A) (A) (A)
                 (A) (A) (A) (A) (A) (A) (A) (A) (A) (A) (A) (A)
                 (A) (A) (A) (A) (A) (A) (A) (A) (A) (A) (A) (A)
                 (A) (A) (A) (A) (A) (A) (A) (A) (A) (A) (A) (A)
                 (A) (A) (A) (A) (A) (A) (A) (A) (A) (A) (A) (A)
                 (A) (A) (A) (A) (A) (A) (A) (A) (A) (A) (A) (A)
                 (A) (A) (A) (A) (A) (A) (A) (A) (A) (A) (A) (A)
                 (A) (A) (A) (A) (A) (A) (A) (A) (A) (A) (A)
 The electronic state is 1-A.
 Alpha  occ. eigenvalues --  -19.27185 -19.26757 -19.23118 -14.48548 -10.38073
 Alpha  occ. eigenvalues --  -10.36111 -10.34481 -10.34454 -10.33049 -10.32249
 Alpha  occ. eigenvalues --  -10.32093 -10.30456 -10.30215 -10.30005 -10.29279
 Alpha  occ. eigenvalues --  -10.27253  -1.17623  -1.16738  -1.13782  -1.08013
 Alpha  occ. eigenvalues --   -0.96759  -0.89453  -0.87183  -0.85603  -0.83870
 Alpha  occ. eigenvalues --   -0.79750  -0.78867  -0.74973  -0.70789  -0.68738
 Alpha  occ. eigenvalues --   -0.64993  -0.63014  -0.62419  -0.60188  -0.59348
 Alpha  occ. eigenvalues --   -0.57600  -0.57205  -0.55757  -0.54721  -0.53348
 Alpha  occ. eigenvalues --   -0.52517  -0.52432  -0.52093  -0.50464  -0.50066
 Alpha  occ. eigenvalues --   -0.49506  -0.48145  -0.48044  -0.47912  -0.46567
 Alpha  occ. eigenvalues --   -0.45249  -0.44062  -0.41930  -0.41196  -0.37411
 Alpha  occ. eigenvalues --   -0.34801  -0.34766  -0.30153  -0.28822
 Alpha virt. eigenvalues --   -0.00534   0.03931   0.04569   0.05156   0.05322
 Alpha virt. eigenvalues --    0.05978   0.06189   0.06628   0.07529   0.07832
 Alpha virt. eigenvalues --    0.07878   0.08152   0.08837   0.09335   0.09602
 Alpha virt. eigenvalues --    0.09950   0.11382   0.11635   0.11887   0.12561
 Alpha virt. eigenvalues --    0.13068   0.13908   0.13949   0.14495   0.14665
 Alpha virt. eigenvalues --    0.15266   0.15545   0.16060   0.16267   0.16530
 Alpha virt. eigenvalues --    0.16989   0.17525   0.17762   0.17868   0.18433
 Alpha virt. eigenvalues --    0.18618   0.18805   0.19279   0.19413   0.19861
 Alpha virt. eigenvalues --    0.20275   0.20522   0.20837   0.20992   0.21614
 Alpha virt. eigenvalues --    0.21852   0.22231   0.22442   0.22974   0.23268
 Alpha virt. eigenvalues --    0.23725   0.24549   0.24961   0.25342   0.25505
 Alpha virt. eigenvalues --    0.25931   0.26505   0.26845   0.27076   0.27350
 Alpha virt. eigenvalues --    0.27516   0.27675   0.28199   0.28691   0.29209
 Alpha virt. eigenvalues --    0.29501   0.30757   0.30863   0.31476   0.31689
 Alpha virt. eigenvalues --    0.32759   0.33090   0.33170   0.33457   0.34269
 Alpha virt. eigenvalues --    0.34729   0.35113   0.35436   0.35809   0.35939
 Alpha virt. eigenvalues --    0.36316   0.36566   0.37521   0.38082   0.38315
 Alpha virt. eigenvalues --    0.38421   0.38619   0.39349   0.39569   0.39797
 Alpha virt. eigenvalues --    0.40315   0.40829   0.41844   0.42398   0.42840
 Alpha virt. eigenvalues --    0.43644   0.44181   0.44416   0.45326   0.45553
 Alpha virt. eigenvalues --    0.47031   0.47361   0.47613   0.49337   0.50377
 Alpha virt. eigenvalues --    0.51588   0.52569   0.53210   0.53787   0.55557
 Alpha virt. eigenvalues --    0.55736   0.56511   0.58207   0.58901   0.60582
 Alpha virt. eigenvalues --    0.61725   0.62467   0.63077   0.63568   0.64930
 Alpha virt. eigenvalues --    0.65491   0.66424   0.66829   0.68083   0.68446
 Alpha virt. eigenvalues --    0.69546   0.69836   0.70111   0.70884   0.71565
 Alpha virt. eigenvalues --    0.72101   0.72296   0.72651   0.73243   0.73388
 Alpha virt. eigenvalues --    0.74291   0.75401   0.75567   0.76638   0.77476
 Alpha virt. eigenvalues --    0.78066   0.79110   0.79371   0.79893   0.80561
 Alpha virt. eigenvalues --    0.80920   0.82252   0.83205   0.84550   0.85784
 Alpha virt. eigenvalues --    0.85888   0.87829   0.88614   0.89165   0.92292
 Alpha virt. eigenvalues --    0.94061   0.95113   0.95391   0.95494   0.97911
 Alpha virt. eigenvalues --    0.98775   0.99064   0.99380   1.00009   1.01266
 Alpha virt. eigenvalues --    1.02115   1.03817   1.04855   1.05588   1.06282
 Alpha virt. eigenvalues --    1.08681   1.09561   1.10871   1.11532   1.11813
 Alpha virt. eigenvalues --    1.12478   1.14405   1.14884   1.16355   1.17010
 Alpha virt. eigenvalues --    1.17747   1.18265   1.18759   1.19214   1.21229
 Alpha virt. eigenvalues --    1.22862   1.24445   1.27447   1.29452   1.31584
 Alpha virt. eigenvalues --    1.32130   1.32761   1.33280   1.35718   1.37497
 Alpha virt. eigenvalues --    1.39103   1.40342   1.41812   1.44000   1.45597
 Alpha virt. eigenvalues --    1.46245   1.47724   1.51827   1.52327   1.52623
 Alpha virt. eigenvalues --    1.53364   1.53643   1.56097   1.58553   1.59580
 Alpha virt. eigenvalues --    1.60090   1.60993   1.61853   1.63932   1.64730
 Alpha virt. eigenvalues --    1.65052   1.66193   1.66956   1.67047   1.68490
 Alpha virt. eigenvalues --    1.68812   1.69484   1.70543   1.71591   1.74047
 Alpha virt. eigenvalues --    1.74332   1.76133   1.77034   1.78148   1.78505
 Alpha virt. eigenvalues --    1.79640   1.80814   1.81655   1.82301   1.83289
 Alpha virt. eigenvalues --    1.84129   1.85025   1.86167   1.87515   1.87691
 Alpha virt. eigenvalues --    1.89943   1.91585   1.92993   1.95073   1.96177
 Alpha virt. eigenvalues --    1.97525   1.99889   2.01836   2.03157   2.03853
 Alpha virt. eigenvalues --    2.04818   2.05323   2.07234   2.08056   2.08391
 Alpha virt. eigenvalues --    2.10744   2.11340   2.13463   2.14596   2.15058
 Alpha virt. eigenvalues --    2.17491   2.19290   2.20159   2.21546   2.24290
 Alpha virt. eigenvalues --    2.25263   2.25876   2.26585   2.27245   2.30230
 Alpha virt. eigenvalues --    2.31361   2.32215   2.35260   2.40412   2.41479
 Alpha virt. eigenvalues --    2.41985   2.47341   2.48161   2.50165   2.52316
 Alpha virt. eigenvalues --    2.53823   2.54141   2.55909   2.56602   2.58404
 Alpha virt. eigenvalues --    2.60687   2.61147   2.62733   2.63830   2.65683
 Alpha virt. eigenvalues --    2.66226   2.67736   2.70329   2.71814   2.72483
 Alpha virt. eigenvalues --    2.73243   2.74200   2.74806   2.77062   2.77949
 Alpha virt. eigenvalues --    2.79447   2.81194   2.82158   2.83724   2.84581
 Alpha virt. eigenvalues --    2.85587   2.86431   2.87111   2.87951   2.89923
 Alpha virt. eigenvalues --    2.90875   2.93871   2.95132   2.95687   2.96420
 Alpha virt. eigenvalues --    2.99234   3.01631   3.03142   3.04527   3.08677
 Alpha virt. eigenvalues --    3.11225   3.11779   3.14291   3.15553   3.17846
 Alpha virt. eigenvalues --    3.19671   3.21085   3.22031   3.22644   3.24165
 Alpha virt. eigenvalues --    3.27736   3.29952   3.30527   3.31806   3.37046
 Alpha virt. eigenvalues --    3.40014   3.42501   3.43024   3.50030   3.52795
 Alpha virt. eigenvalues --    3.57792   3.61342   3.63749   3.67300   3.69015
 Alpha virt. eigenvalues --    3.72638   3.75032   3.77253   3.81013   3.81891
 Alpha virt. eigenvalues --    3.84524   3.86561   3.88901   3.89953   3.92705
 Alpha virt. eigenvalues --    3.94633   3.96033   4.02640   4.09773   4.12715
 Alpha virt. eigenvalues --    4.13339   4.18216   4.26015   4.29212   4.31118
 Alpha virt. eigenvalues --    4.39635   4.64229   4.94592   4.99580   5.12957
 Alpha virt. eigenvalues --    5.18097   5.18689   5.25639   5.42754   5.50932
 Alpha virt. eigenvalues --    5.61273   5.85644   5.90986   5.94450  23.72397
 Alpha virt. eigenvalues --   23.94794  24.03327  24.04177  24.05194  24.06352
 Alpha virt. eigenvalues --   24.08288  24.09361  24.15517  24.24178  24.30387
 Alpha virt. eigenvalues --   24.32331  35.71095  50.08961  50.13037  50.19266
          Condensed to atoms (all electrons):
               1          2          3          4          5          6
     1  C    5.277972   0.387945   0.420395  -0.069257   0.011798   0.236503
     2  H    0.387945   0.459139  -0.013464   0.001282  -0.004921  -0.045756
     3  H    0.420395  -0.013464   0.516922  -0.009012  -0.000374  -0.054460
     4  C   -0.069257   0.001282  -0.009012   5.199902   0.401775   0.249243
     5  H    0.011798  -0.004921  -0.000374   0.401775   0.541853  -0.046587
     6  N    0.236503  -0.045756  -0.054460   0.249243  -0.046587   6.792021
     7  H    0.411117  -0.022501  -0.053978   0.011571   0.002490  -0.025726
     8  H   -0.003933   0.003451  -0.000721   0.411844  -0.030505  -0.093024
     9  H   -0.011101  -0.004837   0.002959   0.408539  -0.059660  -0.040967
    10  C    0.095664   0.012894  -0.033155   0.024043  -0.027114   0.256052
    11  H    0.012040  -0.000888  -0.000931  -0.035000   0.005596  -0.058570
    12  C    0.280809   0.038948   0.010590  -0.127594   0.006673  -0.271796
    13  C   -0.322046  -0.016944   0.027419  -0.132627  -0.001334   0.011466
    14  H    0.006392  -0.000483  -0.028532  -0.001706   0.001305  -0.012929
    15  O   -0.001135   0.000084   0.000178   0.000485  -0.000185   0.003614
    16  C   -0.259021  -0.007627  -0.003029   0.023625  -0.001384   0.006290
    17  C   -0.047153  -0.000427  -0.000303  -0.003494  -0.000446   0.006438
    18  C    0.049528  -0.002093   0.018389  -0.023713   0.000080  -0.032381
    19  O   -0.000108  -0.000006   0.000045   0.000259   0.000002  -0.000109
    20  C    0.005011   0.000216  -0.000154  -0.001892  -0.000019  -0.000901
    21  C   -0.017050  -0.000884  -0.002049   0.005522   0.000081   0.005927
    22  H    0.007264   0.000413   0.006266  -0.003921  -0.000255  -0.012508
    23  H   -0.001040  -0.000083   0.000114   0.000087  -0.000005  -0.000090
    24  H    0.000091   0.000003   0.000001  -0.000005   0.000000  -0.000039
    25  C   -0.010246  -0.000306  -0.001522   0.000491   0.000023   0.003269
    26  H   -0.000152  -0.000005  -0.000007   0.000010   0.000000   0.000028
    27  O    0.000002  -0.000003  -0.000054  -0.000012   0.000000  -0.000023
    28  C   -0.000218  -0.000018  -0.000021   0.000006   0.000001   0.000061
    29  H    0.000046   0.000002   0.000011  -0.000005   0.000000  -0.000008
    30  H   -0.000089  -0.000005   0.000030   0.000011   0.000000   0.000004
    31  H    0.000007   0.000001  -0.000027   0.000002   0.000000   0.000009
               7          8          9         10         11         12
     1  C    0.411117  -0.003933  -0.011101   0.095664   0.012040   0.280809
     2  H   -0.022501   0.003451  -0.004837   0.012894  -0.000888   0.038948
     3  H   -0.053978  -0.000721   0.002959  -0.033155  -0.000931   0.010590
     4  C    0.011571   0.411844   0.408539   0.024043  -0.035000  -0.127594
     5  H    0.002490  -0.030505  -0.059660  -0.027114   0.005596   0.006673
     6  N   -0.025726  -0.093024  -0.040967   0.256052  -0.058570  -0.271796
     7  H    0.533553  -0.002944  -0.001588   0.067415   0.001127  -0.068573
     8  H   -0.002944   0.531821  -0.025138   0.062317  -0.012146  -0.009457
     9  H   -0.001588  -0.025138   0.540139  -0.015547   0.001207   0.013911
    10  C    0.067415   0.062317  -0.015547  12.801941   0.273041   1.755628
    11  H    0.001127  -0.012146   0.001207   0.273041   0.469596   0.151037
    12  C   -0.068573  -0.009457   0.013911   1.755628   0.151037  14.895056
    13  C   -0.049707   0.007765   0.001969  -4.974039   0.071711   1.103366
    14  H    0.031928  -0.002398   0.000390   0.312218  -0.002170   0.570463
    15  O    0.000434   0.000714   0.000079   0.114318   0.009582  -0.240256
    16  C    0.003430   0.010083   0.000938  -1.171511  -0.110247  -5.378819
    17  C   -0.000305   0.004671  -0.000131  -1.156743  -0.084212  -4.207815
    18  C   -0.026627  -0.005619   0.000404  -2.670893   0.080690  -0.496354
    19  O    0.000015  -0.000075   0.000003   0.002214  -0.000010  -0.041505
    20  C   -0.001692  -0.000060   0.000014  -0.415858  -0.000147  -0.141434
    21  C    0.009181   0.000315  -0.000027   0.525881  -0.006544  -0.796111
    22  H   -0.013186   0.000089   0.000028  -0.328979   0.004991  -0.092671
    23  H   -0.000093   0.000067   0.000030  -0.015349   0.000340  -0.008049
    24  H   -0.000033   0.000000   0.000000  -0.002705  -0.000089   0.005335
    25  C    0.003365   0.000158  -0.000017   0.028573  -0.004907  -0.552465
    26  H    0.000039   0.000001   0.000000   0.001282  -0.000009  -0.005969
    27  O    0.000003  -0.000001   0.000000  -0.000755  -0.000042   0.007177
    28  C   -0.000075  -0.000001   0.000000   0.000650  -0.000054  -0.005257
    29  H   -0.000031   0.000000   0.000000  -0.000902   0.000005   0.000150
    30  H    0.000052  -0.000001   0.000001   0.000628   0.000005  -0.002551
    31  H    0.000028   0.000000   0.000000   0.000758  -0.000001   0.002287
              13         14         15         16         17         18
     1  C   -0.322046   0.006392  -0.001135  -0.259021  -0.047153   0.049528
     2  H   -0.016944  -0.000483   0.000084  -0.007627  -0.000427  -0.002093
     3  H    0.027419  -0.028532   0.000178  -0.003029  -0.000303   0.018389
     4  C   -0.132627  -0.001706   0.000485   0.023625  -0.003494  -0.023713
     5  H   -0.001334   0.001305  -0.000185  -0.001384  -0.000446   0.000080
     6  N    0.011466  -0.012929   0.003614   0.006290   0.006438  -0.032381
     7  H   -0.049707   0.031928   0.000434   0.003430  -0.000305  -0.026627
     8  H    0.007765  -0.002398   0.000714   0.010083   0.004671  -0.005619
     9  H    0.001969   0.000390   0.000079   0.000938  -0.000131   0.000404
    10  C   -4.974039   0.312218   0.114318  -1.171511  -1.156743  -2.670893
    11  H    0.071711  -0.002170   0.009582  -0.110247  -0.084212   0.080690
    12  C    1.103366   0.570463  -0.240256  -5.378819  -4.207815  -0.496354
    13  C   14.777339  -0.145782   0.843057   0.919741  -4.187365   1.364312
    14  H   -0.145782   0.742094  -0.008174   0.178700   0.036132  -0.740063
    15  O    0.843057  -0.008174   8.224923  -0.144192  -0.164008  -0.227827
    16  C    0.919741   0.178700  -0.144192  21.408280   2.396548 -10.235494
    17  C   -4.187365   0.036132  -0.164008   2.396548  19.879828  -8.077225
    18  C    1.364312  -0.740063  -0.227827 -10.235494  -8.077225  29.363244
    19  O   -0.060552  -0.000535  -0.004359   0.116101   0.361226  -0.012905
    20  C   -0.457336  -0.040471  -0.078515  -3.349270  -0.238561   3.053924
    21  C   -1.251819  -0.039734   0.016147  -1.725169   0.710580   0.585397
    22  H    0.099387  -0.146322  -0.001598  -0.805582  -0.147695   2.020050
    23  H    0.010836  -0.003566   0.068718  -0.153987   0.015984   0.060535
    24  H    0.011922  -0.000885   0.000881  -0.110702  -0.172583   0.093280
    25  C   -1.127316   0.115320  -0.025829   2.210013   0.915361  -5.779129
    26  H   -0.004965   0.001281  -0.000183   0.150957   0.047313  -0.201324
    27  O   -0.002057   0.007656   0.000038   0.055687   0.010853  -0.214557
    28  C   -0.004500   0.007374   0.000052   0.018887   0.055048  -0.131017
    29  H   -0.000898  -0.000383  -0.000032  -0.022398  -0.006793   0.011085
    30  H    0.005026  -0.001075   0.000080   0.035844   0.002320   0.043249
    31  H    0.001001   0.001187   0.000008   0.014107   0.002100  -0.017002
              19         20         21         22         23         24
     1  C   -0.000108   0.005011  -0.017050   0.007264  -0.001040   0.000091
     2  H   -0.000006   0.000216  -0.000884   0.000413  -0.000083   0.000003
     3  H    0.000045  -0.000154  -0.002049   0.006266   0.000114   0.000001
     4  C    0.000259  -0.001892   0.005522  -0.003921   0.000087  -0.000005
     5  H    0.000002  -0.000019   0.000081  -0.000255  -0.000005   0.000000
     6  N   -0.000109  -0.000901   0.005927  -0.012508  -0.000090  -0.000039
     7  H    0.000015  -0.001692   0.009181  -0.013186  -0.000093  -0.000033
     8  H   -0.000075  -0.000060   0.000315   0.000089   0.000067   0.000000
     9  H    0.000003   0.000014  -0.000027   0.000028   0.000030   0.000000
    10  C    0.002214  -0.415858   0.525881  -0.328979  -0.015349  -0.002705
    11  H   -0.000010  -0.000147  -0.006544   0.004991   0.000340  -0.000089
    12  C   -0.041505  -0.141434  -0.796111  -0.092671  -0.008049   0.005335
    13  C   -0.060552  -0.457336  -1.251819   0.099387   0.010836   0.011922
    14  H   -0.000535  -0.040471  -0.039734  -0.146322  -0.003566  -0.000885
    15  O   -0.004359  -0.078515   0.016147  -0.001598   0.068718   0.000881
    16  C    0.116101  -3.349270  -1.725169  -0.805582  -0.153987  -0.110702
    17  C    0.361226  -0.238561   0.710580  -0.147695   0.015984  -0.172583
    18  C   -0.012905   3.053924   0.585397   2.020050   0.060535   0.093280
    19  O    8.158130  -0.412845  -0.004311  -0.003129   0.255713  -0.025758
    20  C   -0.412845   8.975611  -0.076982   0.190878   0.079420   0.562995
    21  C   -0.004311  -0.076982  10.546227  -0.135970   0.020229   0.050193
    22  H   -0.003129   0.190878  -0.135970   0.706441   0.004625   0.005322
    23  H    0.255713   0.079420   0.020229   0.004625   0.305071   0.002156
    24  H   -0.025758   0.562995   0.050193   0.005322   0.002156   0.446890
    25  C    0.010133  -1.096706  -1.726147  -0.463289  -0.008287  -0.107074
    26  H    0.001579  -0.090075  -0.289676  -0.010139  -0.000785  -0.014766
    27  O    0.000333   0.000369   0.451256  -0.044691   0.000360  -0.000118
    28  C    0.000390   0.035143  -0.220199  -0.023600   0.000047  -0.000045
    29  H   -0.000218   0.003876   0.013825   0.002998   0.000012   0.001381
    30  H    0.000174   0.001890  -0.065498  -0.002497  -0.000056  -0.000641
    31  H    0.000026  -0.005626   0.016385  -0.004880  -0.000017  -0.000053
              25         26         27         28         29         30
     1  C   -0.010246  -0.000152   0.000002  -0.000218   0.000046  -0.000089
     2  H   -0.000306  -0.000005  -0.000003  -0.000018   0.000002  -0.000005
     3  H   -0.001522  -0.000007  -0.000054  -0.000021   0.000011   0.000030
     4  C    0.000491   0.000010  -0.000012   0.000006  -0.000005   0.000011
     5  H    0.000023   0.000000   0.000000   0.000001   0.000000   0.000000
     6  N    0.003269   0.000028  -0.000023   0.000061  -0.000008   0.000004
     7  H    0.003365   0.000039   0.000003  -0.000075  -0.000031   0.000052
     8  H    0.000158   0.000001  -0.000001  -0.000001   0.000000  -0.000001
     9  H   -0.000017   0.000000   0.000000   0.000000   0.000000   0.000001
    10  C    0.028573   0.001282  -0.000755   0.000650  -0.000902   0.000628
    11  H   -0.004907  -0.000009  -0.000042  -0.000054   0.000005   0.000005
    12  C   -0.552465  -0.005969   0.007177  -0.005257   0.000150  -0.002551
    13  C   -1.127316  -0.004965  -0.002057  -0.004500  -0.000898   0.005026
    14  H    0.115320   0.001281   0.007656   0.007374  -0.000383  -0.001075
    15  O   -0.025829  -0.000183   0.000038   0.000052  -0.000032   0.000080
    16  C    2.210013   0.150957   0.055687   0.018887  -0.022398   0.035844
    17  C    0.915361   0.047313   0.010853   0.055048  -0.006793   0.002320
    18  C   -5.779129  -0.201324  -0.214557  -0.131017   0.011085   0.043249
    19  O    0.010133   0.001579   0.000333   0.000390  -0.000218   0.000174
    20  C   -1.096706  -0.090075   0.000369   0.035143   0.003876   0.001890
    21  C   -1.726147  -0.289676   0.451256  -0.220199   0.013825  -0.065498
    22  H   -0.463289  -0.010139  -0.044691  -0.023600   0.002998  -0.002497
    23  H   -0.008287  -0.000785   0.000360   0.000047   0.000012  -0.000056
    24  H   -0.107074  -0.014766  -0.000118  -0.000045   0.001381  -0.000641
    25  C   12.753345   0.720758  -0.197218   0.116371  -0.008209  -0.011391
    26  H    0.720758   0.480616  -0.011636  -0.004212  -0.008652   0.002616
    27  O   -0.197218  -0.011636   8.095026   0.146005  -0.039088  -0.050540
    28  C    0.116371  -0.004212   0.146005   5.153904   0.407764   0.404954
    29  H   -0.008209  -0.008652  -0.039088   0.407764   0.582705  -0.058406
    30  H   -0.011391   0.002616  -0.050540   0.404954  -0.058406   0.558163
    31  H    0.004828  -0.000452  -0.055679   0.408948  -0.025102  -0.023913
              31
     1  C    0.000007
     2  H    0.000001
     3  H   -0.000027
     4  C    0.000002
     5  H    0.000000
     6  N    0.000009
     7  H    0.000028
     8  H    0.000000
     9  H    0.000000
    10  C    0.000758
    11  H   -0.000001
    12  C    0.002287
    13  C    0.001001
    14  H    0.001187
    15  O    0.000008
    16  C    0.014107
    17  C    0.002100
    18  C   -0.017002
    19  O    0.000026
    20  C   -0.005626
    21  C    0.016385
    22  H   -0.004880
    23  H   -0.000017
    24  H   -0.000053
    25  C    0.004828
    26  H   -0.000452
    27  O   -0.055679
    28  C    0.408948
    29  H   -0.025102
    30  H   -0.023913
    31  H    0.504821
 Mulliken charges:
               1
     1  C   -0.460033
     2  H    0.216874
     3  H    0.198474
     4  C   -0.330460
     5  H    0.201113
     6  N    0.124951
     7  H    0.191311
     8  H    0.152725
     9  H    0.188404
    10  C    0.478037
    11  H    0.235000
    12  C   -0.394753
    13  C   -0.517028
    14  H    0.162768
    15  O   -0.387100
    16  C    1.929204
    17  C    0.050858
    18  C   -1.849942
    19  O   -0.339915
    20  C   -0.500804
    21  C   -0.598977
    22  H    0.192158
    23  H    0.367061
    24  H    0.255044
    25  C    0.238051
    26  H    0.236527
    27  O   -0.158290
    28  C   -0.366390
    29  H    0.147267
    30  H    0.161614
    31  H    0.176251
 Sum of Mulliken charges =   0.00000
 Mulliken charges with hydrogens summed into heavy atoms:
               1
     1  C    0.146625
     4  C    0.211782
     6  N    0.124951
    10  C    0.713037
    12  C   -0.231985
    13  C   -0.517028
    15  O   -0.387100
    16  C    1.929204
    17  C    0.050858
    18  C   -1.657784
    19  O    0.027146
    20  C   -0.245760
    21  C   -0.598977
    25  C    0.474578
    27  O   -0.158290
    28  C    0.118742
 Electronic spatial extent (au):  <R**2>=           5248.3315
 Charge=              0.0000 electrons
 Dipole moment (field-independent basis, Debye):
    X=             -5.0621    Y=             -5.8733    Z=              0.8165  Tot=              7.7967
 Quadrupole moment (field-independent basis, Debye-Ang):
   XX=            -50.8374   YY=           -101.4269   ZZ=            -99.0454
   XY=              3.5373   XZ=              4.9332   YZ=             -3.9899
 Traceless Quadrupole moment (field-independent basis, Debye-Ang):
   XX=             32.9325   YY=            -17.6570   ZZ=            -15.2755
   XY=              3.5373   XZ=              4.9332   YZ=             -3.9899
 Octapole moment (field-independent basis, Debye-Ang**2):
  XXX=           -111.6296  YYY=            -54.4930  ZZZ=              2.2215  XYY=            -17.1121
  XXY=            -42.4516  XXZ=             11.0710  XZZ=             -7.2763  YZZ=             -1.6489
  YYZ=              7.6182  XYZ=            -15.2555
 Hexadecapole moment (field-independent basis, Debye-Ang**3):
 XXXX=          -3892.0134 YYYY=          -1650.6853 ZZZZ=           -163.8961 XXXY=             27.8343
 XXXZ=             34.3412 YYYX=            -57.5695 YYYZ=            -22.5467 ZZZX=             10.0308
 ZZZY=              2.1652 XXYY=          -1007.9664 XXZZ=           -916.1430 YYZZ=           -298.7409
 XXYZ=            -41.3609 YYXZ=             32.9331 ZZXY=             -5.1380
 N-N= 1.054658338462D+03 E-N=-3.852687828931D+03  KE= 7.437912095348D+02
 D1PCM: PCM CHGder 1st derivatives, ID1Alg=3 FixD1E=F DoIter=F DoCFld=F I1PDM=0.
 Calling FoFJK, ICntrl=      2127 FMM=F ISym2X=0 I1Cent= 0 IOpClX= 0 NMat=1 NMatS=1 NMatT=0.
 ***** Axes restored to original set *****
 -------------------------------------------------------------------
 Center     Atomic                   Forces (Hartrees/Bohr)
 Number     Number              X              Y              Z
 -------------------------------------------------------------------
      1        6          -0.000198873    0.001073577    0.002656618
      2        1          -0.000414360   -0.000322883   -0.000366951
      3        1           0.000489062   -0.000348110   -0.000307180
      4        6           0.002744694   -0.000053590   -0.002097843
      5        1          -0.000597237   -0.000613138    0.000787336
      6        7          -0.007876623   -0.004773749   -0.003630638
      7        1           0.000186722    0.000233650   -0.000223815
      8        1          -0.000036078    0.000080936    0.000124468
      9        1          -0.000920394    0.000159276    0.000154088
     10        6           0.012112789    0.005392509   -0.000408753
     11        1           0.001091984    0.000762226    0.000178663
     12        6          -0.010351103   -0.004424036    0.001085010
     13        6           0.005894378    0.008192313    0.009654512
     14        1           0.000150057   -0.000078600    0.000016444
     15        8          -0.000854312   -0.004911848   -0.007974275
     16        6          -0.001365976   -0.001013464   -0.000958474
     17        6          -0.001927216    0.002174048    0.006587195
     18        6           0.000780902    0.000428204    0.000110122
     19        8           0.000542264   -0.002038756   -0.005073169
     20        6           0.001342550   -0.000120024   -0.001560382
     21        6          -0.000562387   -0.000185009   -0.000564678
     22        1           0.000465913   -0.000087038   -0.000304421
     23        1           0.001345484    0.000820870    0.000494039
     24        1          -0.000671137   -0.000107443    0.000403187
     25        6          -0.001234453    0.000263970    0.001493218
     26        1           0.000098079   -0.000263927   -0.000105536
     27        8           0.000660069    0.002097082   -0.003060400
     28        6          -0.001205717   -0.003199058    0.003166089
     29        1           0.000358052    0.000546064   -0.000072439
     30        1          -0.000156807    0.000635313   -0.000065522
     31        1           0.000109670   -0.000319363   -0.000136511
 -------------------------------------------------------------------
 Cartesian Forces:  Max     0.012112789 RMS     0.003017390

 GradGradGradGradGradGradGradGradGradGradGradGradGradGradGradGradGradGrad
 Berny optimization.
 FormGI is forming the generalized inverse of G from B-inverse, IUseBI=4.
 Internal  Forces:  Max     0.008827283 RMS     0.001594237
 Search for a local minimum.
 Step number   1 out of a maximum of  150
 All quantities printed in internal units (Hartrees-Bohrs-Radians)
 Mixed Optimization -- RFO/linear search
 Second derivative matrix not updated -- first step.
 ITU=  0
     Eigenvalues ---    0.00936   0.01033   0.01052   0.01191   0.01436
     Eigenvalues ---    0.01438   0.01491   0.01665   0.01990   0.02025
     Eigenvalues ---    0.02025   0.02096   0.02167   0.02173   0.02213
     Eigenvalues ---    0.02227   0.02262   0.02296   0.02457   0.02531
     Eigenvalues ---    0.02535   0.02603   0.07411   0.07426   0.07585
     Eigenvalues ---    0.07633   0.10084   0.10595   0.15997   0.15999
     Eigenvalues ---    0.16000   0.16000   0.16000   0.16000   0.16000
     Eigenvalues ---    0.16000   0.16000   0.16000   0.16000   0.16000
     Eigenvalues ---    0.16000   0.16000   0.16000   0.22000   0.22001
     Eigenvalues ---    0.22362   0.23481   0.24597   0.24773   0.24854
     Eigenvalues ---    0.24974   0.24999   0.24999   0.25000   0.25000
     Eigenvalues ---    0.25000   0.33765   0.34074   0.34087   0.34134
     Eigenvalues ---    0.34152   0.34345   0.34357   0.34829   0.34842
     Eigenvalues ---    0.34843   0.35255   0.35468   0.35593   0.35757
     Eigenvalues ---    0.36114   0.38272   0.38329   0.38458   0.41289
     Eigenvalues ---    0.42210   0.43189   0.44694   0.45628   0.48015
     Eigenvalues ---    0.48978   0.50057   0.50274   0.52713   0.56721
     Eigenvalues ---    0.58058   0.85558
 RFO step:  Lambda=-8.32758076D-04 EMin= 9.36021597D-03
 Linear search not attempted -- first point.
 Iteration  1 RMS(Cart)=  0.01578595 RMS(Int)=  0.00008888
 Iteration  2 RMS(Cart)=  0.00014553 RMS(Int)=  0.00000822
 Iteration  3 RMS(Cart)=  0.00000001 RMS(Int)=  0.00000822
 Variable       Old X    -DE/DX   Delta X   Delta X   Delta X     New X
                                 (Linear)    (Quad)   (Total)
    R1        2.05931  -0.00059   0.00000  -0.00169  -0.00169   2.05762
    R2        2.07184  -0.00058   0.00000  -0.00169  -0.00169   2.07015
    R3        2.73704   0.00185   0.00000   0.00479   0.00479   2.74184
    R4        2.06752  -0.00036   0.00000  -0.00104  -0.00104   2.06647
    R5        2.07074  -0.00081   0.00000  -0.00235  -0.00235   2.06839
    R6        2.73971   0.00143   0.00000   0.00374   0.00374   2.74345
    R7        2.05932  -0.00015   0.00000  -0.00044  -0.00044   2.05888
    R8        2.06732  -0.00072   0.00000  -0.00208  -0.00208   2.06523
    R9        2.53634  -0.00853   0.00000  -0.01501  -0.01501   2.52133
   R10        2.05263  -0.00029   0.00000  -0.00081  -0.00081   2.05182
   R11        2.57222   0.00745   0.00000   0.01411   0.01411   2.58633
   R12        2.73890  -0.00502   0.00000  -0.01307  -0.01307   2.72583
   R13        2.03904  -0.00005   0.00000  -0.00015  -0.00015   2.03889
   R14        2.35050   0.00883   0.00000   0.01031   0.01031   2.36081
   R15        2.81029   0.00148   0.00000   0.00436   0.00436   2.81465
   R16        2.66910  -0.00137   0.00000  -0.00334  -0.00334   2.66576
   R17        2.65331  -0.00028   0.00000  -0.00070  -0.00070   2.65260
   R18        2.52511   0.00499   0.00000   0.00858   0.00858   2.53369
   R19        2.64618  -0.00030   0.00000  -0.00078  -0.00078   2.64541
   R20        2.60441   0.00137   0.00000   0.00287   0.00287   2.60728
   R21        2.04463   0.00008   0.00000   0.00022   0.00022   2.04485
   R22        1.86290   0.00138   0.00000   0.00274   0.00274   1.86564
   R23        2.04723   0.00027   0.00000   0.00076   0.00076   2.04799
   R24        2.60557   0.00083   0.00000   0.00175   0.00175   2.60732
   R25        2.64067   0.00013   0.00000   0.00048   0.00048   2.64115
   R26        2.59808  -0.00019   0.00000  -0.00039  -0.00039   2.59769
   R27        2.04922  -0.00008   0.00000  -0.00023  -0.00023   2.04899
   R28        2.67437   0.00380   0.00000   0.00877   0.00877   2.68314
   R29        2.07105  -0.00056   0.00000  -0.00163  -0.00163   2.06941
   R30        2.07206  -0.00053   0.00000  -0.00155  -0.00155   2.07051
   R31        2.05953  -0.00029   0.00000  -0.00082  -0.00082   2.05870
    A1        1.89835   0.00020   0.00000   0.00025   0.00024   1.89859
    A2        1.90709  -0.00035   0.00000  -0.00263  -0.00263   1.90446
    A3        1.89414   0.00009   0.00000   0.00067   0.00067   1.89481
    A4        1.94249  -0.00038   0.00000  -0.00239  -0.00240   1.94009
    A5        1.89387   0.00024   0.00000   0.00236   0.00236   1.89623
    A6        1.92705   0.00021   0.00000   0.00183   0.00183   1.92888
    A7        1.94091  -0.00111   0.00000  -0.00764  -0.00766   1.93325
    A8        1.89201   0.00050   0.00000   0.00400   0.00401   1.89602
    A9        1.89556   0.00057   0.00000   0.00131   0.00127   1.89683
   A10        1.91290   0.00041   0.00000   0.00370   0.00371   1.91660
   A11        1.92861  -0.00071   0.00000  -0.00487  -0.00489   1.92372
   A12        1.89282   0.00040   0.00000   0.00392   0.00392   1.89674
   A13        2.05818  -0.00026   0.00000  -0.00077  -0.00078   2.05740
   A14        2.09877   0.00055   0.00000   0.00253   0.00252   2.10129
   A15        2.11842  -0.00027   0.00000  -0.00074  -0.00075   2.11766
   A16        2.01993  -0.00081   0.00000  -0.00595  -0.00595   2.01397
   A17        2.21567  -0.00106   0.00000  -0.00481  -0.00481   2.21086
   A18        2.04756   0.00188   0.00000   0.01076   0.01076   2.05832
   A19        2.06420   0.00220   0.00000   0.00999   0.00998   2.07418
   A20        2.11560  -0.00120   0.00000  -0.00557  -0.00558   2.11002
   A21        2.10309  -0.00100   0.00000  -0.00431  -0.00431   2.09877
   A22        2.11000   0.00413   0.00000   0.01651   0.01650   2.12650
   A23        2.09620  -0.00065   0.00000  -0.00257  -0.00258   2.09362
   A24        2.07691  -0.00348   0.00000  -0.01387  -0.01387   2.06304
   A25        2.08221  -0.00097   0.00000  -0.00370  -0.00370   2.07851
   A26        2.13729   0.00104   0.00000   0.00432   0.00432   2.14161
   A27        2.06368  -0.00006   0.00000  -0.00063  -0.00063   2.06306
   A28        2.14626  -0.00282   0.00000  -0.01100  -0.01100   2.13526
   A29        2.08704   0.00119   0.00000   0.00430   0.00430   2.09134
   A30        2.04986   0.00162   0.00000   0.00671   0.00671   2.05657
   A31        2.12367  -0.00058   0.00000  -0.00239  -0.00239   2.12128
   A32        2.11351  -0.00026   0.00000  -0.00226  -0.00226   2.11125
   A33        2.04601   0.00085   0.00000   0.00465   0.00465   2.05066
   A34        1.85366  -0.00169   0.00000  -0.01052  -0.01052   1.84314
   A35        2.05984   0.00097   0.00000   0.00565   0.00565   2.06549
   A36        2.10922  -0.00043   0.00000  -0.00189  -0.00189   2.10733
   A37        2.11410  -0.00054   0.00000  -0.00376  -0.00376   2.11034
   A38        2.08668   0.00054   0.00000   0.00291   0.00291   2.08959
   A39        2.07189   0.00012   0.00000   0.00011   0.00011   2.07200
   A40        2.12374  -0.00065   0.00000  -0.00295  -0.00295   2.12078
   A41        2.09567  -0.00065   0.00000  -0.00220  -0.00220   2.09347
   A42        2.09388   0.00013   0.00000  -0.00012  -0.00012   2.09376
   A43        2.09359   0.00052   0.00000   0.00234   0.00234   2.09593
   A44        2.00551   0.00046   0.00000   0.00183   0.00183   2.00734
   A45        1.95412  -0.00039   0.00000  -0.00231  -0.00231   1.95181
   A46        1.93409  -0.00041   0.00000  -0.00266  -0.00266   1.93144
   A47        1.86208   0.00040   0.00000   0.00246   0.00246   1.86454
   A48        1.90113   0.00044   0.00000   0.00276   0.00276   1.90389
   A49        1.90028   0.00007   0.00000   0.00067   0.00067   1.90095
   A50        1.91134  -0.00011   0.00000  -0.00092  -0.00092   1.91041
    D1       -0.22395   0.00012   0.00000   0.00386   0.00386  -0.22009
    D2        3.04983   0.00001   0.00000  -0.00465  -0.00465   3.04518
    D3        1.87282  -0.00010   0.00000   0.00094   0.00095   1.87377
    D4       -1.13658  -0.00021   0.00000  -0.00757  -0.00757  -1.14415
    D5       -2.30596   0.00009   0.00000   0.00356   0.00356  -2.30239
    D6        0.96783  -0.00001   0.00000  -0.00495  -0.00495   0.96287
    D7       -1.08684   0.00016   0.00000   0.00003   0.00002  -1.08681
    D8        1.92100   0.00033   0.00000   0.00890   0.00888   1.92988
    D9        3.10467  -0.00003   0.00000  -0.00253  -0.00252   3.10215
   D10       -0.17068   0.00014   0.00000   0.00634   0.00634  -0.16434
   D11        1.01970  -0.00034   0.00000  -0.00668  -0.00666   1.01304
   D12       -2.25565  -0.00017   0.00000   0.00219   0.00220  -2.25345
   D13        3.12152  -0.00002   0.00000   0.00144   0.00144   3.12296
   D14       -0.02735  -0.00006   0.00000  -0.00010  -0.00010  -0.02744
   D15        0.11675  -0.00013   0.00000  -0.00737  -0.00738   0.10938
   D16       -3.03211  -0.00017   0.00000  -0.00892  -0.00892  -3.04103
   D17       -3.13079   0.00012   0.00000   0.00496   0.00496  -3.12583
   D18        0.03725   0.00002   0.00000   0.00044   0.00044   0.03769
   D19        0.00343   0.00008   0.00000   0.00333   0.00332   0.00675
   D20       -3.11172  -0.00002   0.00000  -0.00119  -0.00119  -3.11291
   D21       -0.01014   0.00005   0.00000   0.00565   0.00568  -0.00446
   D22       -3.13842   0.00001   0.00000  -0.00002  -0.00005  -3.13847
   D23        3.10521   0.00015   0.00000   0.01011   0.01014   3.11535
   D24       -0.02308   0.00010   0.00000   0.00444   0.00441  -0.01866
   D25        3.04729   0.00011   0.00000   0.00762   0.00759   3.05488
   D26       -0.09691   0.00006   0.00000   0.00509   0.00507  -0.09185
   D27       -0.08125   0.00001   0.00000   0.00182   0.00184  -0.07940
   D28        3.05774  -0.00004   0.00000  -0.00071  -0.00068   3.05706
   D29        0.01844  -0.00007   0.00000  -0.00411  -0.00411   0.01433
   D30       -3.11648  -0.00011   0.00000  -0.00552  -0.00552  -3.12200
   D31       -3.12066  -0.00003   0.00000  -0.00170  -0.00171  -3.12236
   D32        0.02761  -0.00006   0.00000  -0.00311  -0.00311   0.02450
   D33        3.12460   0.00006   0.00000   0.00285   0.00286   3.12745
   D34       -0.01633   0.00002   0.00000   0.00097   0.00098  -0.01536
   D35       -0.01958   0.00002   0.00000   0.00035   0.00035  -0.01923
   D36        3.12268  -0.00003   0.00000  -0.00153  -0.00153   3.12115
   D37        0.02882  -0.00008   0.00000  -0.00327  -0.00327   0.02555
   D38       -3.11932  -0.00005   0.00000  -0.00189  -0.00190  -3.12121
   D39        3.12143   0.00006   0.00000   0.00323   0.00324   3.12466
   D40       -0.01271   0.00005   0.00000   0.00231   0.00231  -0.01039
   D41       -0.01385   0.00005   0.00000   0.00196   0.00196  -0.01189
   D42        3.13520   0.00003   0.00000   0.00104   0.00104   3.13624
   D43       -0.00391   0.00007   0.00000   0.00334   0.00334  -0.00057
   D44       -3.10133   0.00005   0.00000   0.00171   0.00170  -3.09963
   D45        3.13704   0.00012   0.00000   0.00515   0.00515  -3.14099
   D46        0.03962   0.00009   0.00000   0.00351   0.00352   0.04314
   D47       -0.01122   0.00003   0.00000   0.00139   0.00139  -0.00983
   D48        3.11996   0.00008   0.00000   0.00356   0.00356   3.12351
   D49        3.13807   0.00001   0.00000   0.00040   0.00040   3.13847
   D50       -0.01394   0.00006   0.00000   0.00257   0.00257  -0.01137
   D51        0.01957  -0.00010   0.00000  -0.00421  -0.00421   0.01536
   D52       -3.11161  -0.00015   0.00000  -0.00637  -0.00637  -3.11798
   D53        3.11564  -0.00006   0.00000  -0.00244  -0.00244   3.11320
   D54       -0.01554  -0.00010   0.00000  -0.00460  -0.00460  -0.02014
   D55       -2.07041  -0.00003   0.00000  -0.00205  -0.00205  -2.07246
   D56        1.11634  -0.00009   0.00000  -0.00388  -0.00388   1.11246
   D57       -1.11939   0.00006   0.00000   0.00185   0.00185  -1.11754
   D58        1.00703   0.00007   0.00000   0.00190   0.00190   1.00894
   D59        3.08650  -0.00005   0.00000   0.00080   0.00080   3.08729
         Item               Value     Threshold  Converged?
 Maximum Force            0.008827     0.000450     NO 
 RMS     Force            0.001594     0.000300     NO 
 Maximum Displacement     0.045072     0.001800     NO 
 RMS     Displacement     0.015800     0.001200     NO 
 Predicted change in Energy=-4.177644D-04
 GradGradGradGradGradGradGradGradGradGradGradGradGradGradGradGradGradGrad

                          Input orientation:                          
 ---------------------------------------------------------------------
 Center     Atomic      Atomic             Coordinates (Angstroms)
 Number     Number       Type             X           Y           Z
 ---------------------------------------------------------------------
      1          6           0       -0.073910    0.331147    8.566825
      2          1           0        0.866645    0.800721    8.850443
      3          1           0       -0.853414    1.099732    8.525336
      4          6           0        1.279860   -0.011574    6.509483
      5          1           0        1.307530    1.050372    6.245801
      6          7           0        0.088852   -0.319693    7.280328
      7          1           0       -0.343721   -0.399382    9.334509
      8          1           0        1.287785   -0.598498    5.591607
      9          1           0        2.176133   -0.252408    7.086601
     10          6           0       -0.896079   -1.060478    6.769140
     11          1           0       -0.694363   -1.494823    5.794685
     12          6           0       -2.106158   -1.325392    7.351089
     13          6           0       -3.044681   -2.168737    6.652096
     14          1           0       -2.367073   -0.897140    8.306404
     15          8           0       -2.784391   -2.657443    5.532214
     16          6           0       -4.370318   -2.469984    7.260699
     17          6           0       -5.314561   -3.208369    6.516959
     18          6           0       -4.723248   -2.053951    8.554038
     19          8           0       -5.056921   -3.665299    5.283064
     20          6           0       -6.573828   -3.480001    7.064821
     21          6           0       -5.964579   -2.332243    9.088132
     22          1           0       -4.026517   -1.501523    9.170728
     23          1           0       -4.128458   -3.392639    5.087396
     24          1           0       -7.286396   -4.035453    6.466295
     25          6           0       -6.900490   -3.043768    8.332363
     26          1           0       -7.885406   -3.246694    8.737848
     27          8           0       -6.266858   -1.854059   10.340968
     28          6           0       -6.549394   -2.850765   11.311915
     29          1           0       -7.448847   -3.422042   11.059248
     30          1           0       -5.704274   -3.540372   11.415321
     31          1           0       -6.713340   -2.333427   12.256541
 ---------------------------------------------------------------------
                    Distance matrix (angstroms):
                    1          2          3          4          5
     1  C    0.000000
     2  H    1.088844   0.000000
     3  H    1.095478   1.775868   0.000000
     4  C    2.486525   2.512104   3.138395   0.000000
     5  H    2.795142   2.653463   3.141401   1.094543   0.000000
     6  N    1.450917   2.079796   2.110137   1.451771   2.105351
     7  H    1.093530   1.771878   1.778170   3.281338   3.790585
     8  H    3.401526   3.571440   4.009425   1.089513   1.774016
     9  H    2.755775   2.436181   3.616131   1.092874   1.777260
    10  C    2.417489   3.301981   2.784341   2.429471   3.096041
    11  H    3.376965   4.128429   3.770076   2.570704   3.269419
    12  C    2.890012   3.950441   2.971440   3.728208   4.303393
    13  C    4.329098   5.380417   4.358161   4.834805   5.428580
    14  H    2.614404   3.692647   2.515272   4.160922   4.641293
    15  O    5.048489   6.024916   5.177240   4.947101   5.567847
    16  C    5.292582   6.375781   5.168248   6.207464   6.757284
    17  C    6.647898   7.728212   6.518830   7.328433   7.877975
    18  C    5.225438   6.283623   4.992209   6.662493   7.164850
    19  O    7.182275   8.231656   7.133535   7.416778   7.979390
    20  C    7.683086   8.767763   7.471960   8.603418   9.127480
    21  C    6.485784   7.519148   6.182167   8.032237   8.509084
    22  H    4.398464   5.417190   4.153510   6.120442   6.596926
    23  H    6.512478   7.529665   6.536570   6.534817   7.115632
[...]
 Alpha virt. eigenvalues --    2.18408   2.18923   2.20957   2.21519   2.23392
 Alpha virt. eigenvalues --    2.24324   2.25966   2.27638   2.27836   2.28203
 Alpha virt. eigenvalues --    2.31666   2.32785   2.35943   2.41390   2.41874
 Alpha virt. eigenvalues --    2.43495   2.48019   2.48520   2.50913   2.51664
 Alpha virt. eigenvalues --    2.54874   2.55944   2.56238   2.56439   2.58041
 Alpha virt. eigenvalues --    2.59117   2.60326   2.61360   2.63744   2.64673
 Alpha virt. eigenvalues --    2.65799   2.67355   2.69721   2.71192   2.72990
 Alpha virt. eigenvalues --    2.73536   2.74520   2.76632   2.77395   2.78694
 Alpha virt. eigenvalues --    2.80265   2.80881   2.82009   2.83220   2.84985
 Alpha virt. eigenvalues --    2.85761   2.86246   2.86520   2.89118   2.90883
 Alpha virt. eigenvalues --    2.92311   2.93918   2.95274   2.95860   2.97179
 Alpha virt. eigenvalues --    2.99305   3.00495   3.03530   3.03730   3.08700
 Alpha virt. eigenvalues --    3.12413   3.15094   3.15595   3.17098   3.18885
 Alpha virt. eigenvalues --    3.19569   3.21485   3.22051   3.24233   3.25184
 Alpha virt. eigenvalues --    3.28875   3.29430   3.29957   3.32324   3.33919
 Alpha virt. eigenvalues --    3.37712   3.41869   3.44568   3.50691   3.52514
 Alpha virt. eigenvalues --    3.57112   3.61075   3.63553   3.66873   3.69166
 Alpha virt. eigenvalues --    3.72448   3.75137   3.77184   3.80948   3.82082
 Alpha virt. eigenvalues --    3.83457   3.86877   3.87782   3.89923   3.93852
 Alpha virt. eigenvalues --    3.95032   3.95737   4.02842   4.09572   4.13768
 Alpha virt. eigenvalues --    4.19061   4.21022   4.25618   4.29729   4.33315
 Alpha virt. eigenvalues --    4.39938   4.65238   4.95702   4.98525   5.13278
 Alpha virt. eigenvalues --    5.14945   5.18380   5.18958   5.41977   5.53728
 Alpha virt. eigenvalues --    5.61997   5.86571   5.91529   5.94892  23.73263
 Alpha virt. eigenvalues --   23.94802  24.04150  24.05430  24.06584  24.06761
 Alpha virt. eigenvalues --   24.08448  24.10158  24.16607  24.23522  24.27569
 Alpha virt. eigenvalues --   24.31726  35.71407  50.10417  50.13499  50.19252
          Condensed to atoms (all electrons):
               1          2          3          4          5          6
     1  C    5.299113   0.388512   0.418811  -0.061022   0.003521   0.232878
     2  H    0.388512   0.450975  -0.012876   0.004028  -0.004662  -0.045490
     3  H    0.418811  -0.012876   0.518565  -0.002954  -0.001690  -0.047729
     4  C   -0.061022   0.004028  -0.002954   5.191662   0.405741   0.249683
     5  H    0.003521  -0.004662  -0.001690   0.405741   0.534267  -0.043452
     6  N    0.232878  -0.045490  -0.047729   0.249683  -0.043452   6.787024
     7  H    0.409658  -0.019994  -0.055263   0.005304   0.003032  -0.031102
     8  H   -0.004680   0.003194  -0.001042   0.410625  -0.028577  -0.092094
     9  H   -0.000944  -0.006574   0.002678   0.404180  -0.058113  -0.039072
    10  C   -0.042059   0.026963  -0.013222   0.094781  -0.028738   0.282676
    11  H    0.012965  -0.000103  -0.000309  -0.034011   0.004605  -0.058721
    12  C    0.577707   0.033691  -0.015353  -0.204426   0.017029  -0.302764
    13  C   -0.429018  -0.027359   0.015059  -0.122796  -0.004007   0.020712
    14  H    0.012284  -0.000560  -0.025293  -0.009577   0.001977  -0.016973
    15  O   -0.002117   0.000059   0.000347   0.000815  -0.000082   0.003829
    16  C   -0.370558  -0.012794   0.005485   0.032343  -0.002365  -0.009270
    17  C   -0.070022  -0.001659   0.002548  -0.003753  -0.000681   0.001775
    18  C    0.089736  -0.000442   0.008315  -0.025432   0.000417  -0.011559
    19  O   -0.000081  -0.000005   0.000033   0.000208   0.000000  -0.000096
    20  C   -0.000294   0.000042  -0.000398  -0.001239  -0.000029  -0.000148
    21  C    0.001689  -0.000369   0.000789   0.001464  -0.000008   0.001600
    22  H    0.006942   0.000455   0.005116  -0.002761  -0.000336  -0.009522
    23  H   -0.001086  -0.000089   0.000122   0.000061  -0.000008  -0.000095
    24  H    0.000038   0.000001  -0.000006   0.000015   0.000000  -0.000025
    25  C   -0.008185  -0.000294  -0.001166   0.000010   0.000022   0.002439
    26  H   -0.000116  -0.000005  -0.000004  -0.000002   0.000001   0.000025
    27  O   -0.000092  -0.000014   0.000011  -0.000016   0.000000  -0.000063
    28  C   -0.000555  -0.000026   0.000112   0.000000  -0.000001  -0.000033
    29  H    0.000006   0.000000   0.000005   0.000002   0.000000  -0.000006
    30  H   -0.000006  -0.000001  -0.000007   0.000003   0.000000   0.000005
    31  H   -0.000046  -0.000001  -0.000004  -0.000003   0.000000  -0.000002
               7          8          9         10         11         12
     1  C    0.409658  -0.004680  -0.000944  -0.042059   0.012965   0.577707
     2  H   -0.019994   0.003194  -0.006574   0.026963  -0.000103   0.033691
     3  H   -0.055263  -0.001042   0.002678  -0.013222  -0.000309  -0.015353
     4  C    0.005304   0.410625   0.404180   0.094781  -0.034011  -0.204426
     5  H    0.003032  -0.028577  -0.058113  -0.028738   0.004605   0.017029
     6  N   -0.031102  -0.092094  -0.039072   0.282676  -0.058721  -0.302764
     7  H    0.527428  -0.002265  -0.001649   0.047040  -0.000234  -0.053353
     8  H   -0.002265   0.526468  -0.027287   0.064989  -0.011441  -0.027126
     9  H   -0.001649  -0.027287   0.534475  -0.032044   0.002658   0.023367
    10  C    0.047040   0.064989  -0.032044  15.637941   0.267815  -1.912665
    11  H   -0.000234  -0.011441   0.002658   0.267815   0.458557   0.227432
    12  C   -0.053353  -0.027126   0.023367  -1.912665   0.227432  23.419815
    13  C   -0.027385   0.018107   0.001145  -5.533176   0.014734   1.068884
    14  H    0.021190  -0.003593   0.000288   0.014805   0.007833   0.798017
    15  O    0.000263   0.001464  -0.000053   0.249255   0.007607  -0.420272
    16  C    0.006093   0.016131   0.000155   0.655850  -0.118811  -9.906911
    17  C   -0.000557   0.005269  -0.000167  -0.692219  -0.064665  -5.954476
    18  C   -0.019694  -0.005360   0.000409  -2.913905   0.045937   1.378909
    19  O    0.000013  -0.000027   0.000001   0.007387  -0.000199  -0.038807
    20  C   -0.000989   0.000243   0.000008  -0.392104  -0.007217  -0.657452
    21  C    0.002420  -0.000199   0.000099   0.089642   0.002447  -0.731741
    22  H   -0.010681   0.000455   0.000099  -0.243140   0.000013  -0.175190
    23  H   -0.000082   0.000066   0.000029  -0.016590   0.000352  -0.013800
    24  H   -0.000019   0.000003   0.000001   0.000024  -0.000186   0.000065
    25  C    0.002916   0.000025  -0.000022  -0.076934  -0.001011  -0.693305
    26  H    0.000024  -0.000001  -0.000001  -0.001434   0.000028  -0.005409
    27  O    0.000019  -0.000002   0.000001  -0.002533  -0.000016   0.000887
    28  C   -0.000057   0.000004   0.000000  -0.001017  -0.000085  -0.040355
    29  H    0.000014   0.000000   0.000000   0.000248   0.000004  -0.000015
    30  H    0.000006   0.000000   0.000000   0.001015  -0.000005   0.002188
    31  H   -0.000007   0.000000   0.000000  -0.000916  -0.000002  -0.003123
              13         14         15         16         17         18
     1  C   -0.429018   0.012284  -0.002117  -0.370558  -0.070022   0.089736
     2  H   -0.027359  -0.000560   0.000059  -0.012794  -0.001659  -0.000442
     3  H    0.015059  -0.025293   0.000347   0.005485   0.002548   0.008315
     4  C   -0.122796  -0.009577   0.000815   0.032343  -0.003753  -0.025432
     5  H   -0.004007   0.001977  -0.000082  -0.002365  -0.000681   0.000417
     6  N    0.020712  -0.016973   0.003829  -0.009270   0.001775  -0.011559
     7  H   -0.027385   0.021190   0.000263   0.006093  -0.000557  -0.019694
     8  H    0.018107  -0.003593   0.001464   0.016131   0.005269  -0.005360
     9  H    0.001145   0.000288  -0.000053   0.000155  -0.000167   0.000409
    10  C   -5.533176   0.014805   0.249255   0.655850  -0.692219  -2.913905
    11  H    0.014734   0.007833   0.007607  -0.118811  -0.064665   0.045937
    12  C    1.068884   0.798017  -0.420272  -9.906911  -5.954476   1.378909
    13  C   18.160095   0.042220   0.794282   0.465990  -4.706541   0.609515
    14  H    0.042220   0.707909  -0.011978  -0.068710  -0.086237  -0.307381
    15  O    0.794282  -0.011978   8.239459  -0.050788  -0.251419  -0.122430
    16  C    0.465990  -0.068710  -0.050788  24.581236   3.814242  -8.104406
    17  C   -4.706541  -0.086237  -0.251419   3.814242  18.069093  -4.706111
    18  C    0.609515  -0.307381  -0.122430  -8.104406  -4.706111  18.465997
    19  O   -0.085904  -0.000609   0.000909   0.146523   0.301240   0.025430
    20  C   -0.854549   0.004011  -0.081956  -2.196521   2.272548  -0.368225
    21  C   -1.504173  -0.162630   0.003172  -5.046998  -0.786978   4.536104
    22  H   -0.076201  -0.102100   0.002955  -0.573804   0.078138   1.218836
    23  H    0.027222  -0.003696   0.068042  -0.164738   0.033291   0.050760
    24  H   -0.004240  -0.000137   0.001094  -0.109673  -0.127048   0.009083
    25  C   -1.284114   0.061705  -0.031279   0.889838  -1.286867  -1.901116
    26  H    0.004653   0.001370  -0.000464   0.143725  -0.015213  -0.076028
    27  O    0.008749   0.003668   0.000041   0.073412   0.038815  -0.104611
    28  C   -0.068545  -0.003461   0.000082  -0.093481   0.020446   0.179036
    29  H    0.000746  -0.000885   0.000005  -0.012608   0.004805   0.004910
    30  H   -0.000165   0.000805   0.000025   0.010986   0.011281   0.017697
    31  H   -0.001689   0.000408   0.000004   0.000233  -0.005234  -0.005107
              19         20         21         22         23         24
     1  C   -0.000081  -0.000294   0.001689   0.006942  -0.001086   0.000038
     2  H   -0.000005   0.000042  -0.000369   0.000455  -0.000089   0.000001
     3  H    0.000033  -0.000398   0.000789   0.005116   0.000122  -0.000006
     4  C    0.000208  -0.001239   0.001464  -0.002761   0.000061   0.000015
     5  H    0.000000  -0.000029  -0.000008  -0.000336  -0.000008   0.000000
     6  N   -0.000096  -0.000148   0.001600  -0.009522  -0.000095  -0.000025
     7  H    0.000013  -0.000989   0.002420  -0.010681  -0.000082  -0.000019
     8  H   -0.000027   0.000243  -0.000199   0.000455   0.000066   0.000003
     9  H    0.000001   0.000008   0.000099   0.000099   0.000029   0.000001
    10  C    0.007387  -0.392104   0.089642  -0.243140  -0.016590   0.000024
    11  H   -0.000199  -0.007217   0.002447   0.000013   0.000352  -0.000186
    12  C   -0.038807  -0.657452  -0.731741  -0.175190  -0.013800   0.000065
    13  C   -0.085904  -0.854549  -1.504173  -0.076201   0.027222  -0.004240
    14  H   -0.000609   0.004011  -0.162630  -0.102100  -0.003696  -0.000137
    15  O    0.000909  -0.081956   0.003172   0.002955   0.068042   0.001094
    16  C    0.146523  -2.196521  -5.046998  -0.573804  -0.164738  -0.109673
    17  C    0.301240   2.272548  -0.786978   0.078138   0.033291  -0.127048
    18  C    0.025430  -0.368225   4.536104   1.218836   0.050760   0.009083
    19  O    8.190701  -0.381357  -0.013628  -0.001182   0.254770  -0.026266
    20  C   -0.381357  10.447451  -1.684036   0.017479   0.066055   0.525164
    21  C   -0.013628  -1.684036  13.081599   0.328481   0.029457   0.038370
    22  H   -0.001182   0.017479   0.328481   0.648477   0.005122   0.002120
    23  H    0.254770   0.066055   0.029457   0.005122   0.305857   0.002060
    24  H   -0.026266   0.525164   0.038370   0.002120   0.002060   0.449888
    25  C   -0.012901  -0.154586  -1.325283  -0.281057  -0.010451  -0.008719
    26  H    0.001647  -0.074813  -0.243933  -0.010320  -0.000784  -0.012479
    27  O    0.000363   0.069433  -0.098129  -0.048391   0.000391   0.000114
    28  C   -0.001043  -0.260782   0.375594   0.021774   0.000235   0.005117
    29  H    0.000063   0.013088  -0.022248   0.002022   0.000053   0.000580
    30  H    0.000058   0.008204  -0.062155  -0.004715   0.000011   0.000720
    31  H   -0.000040  -0.015370   0.052541  -0.000507  -0.000016   0.000150
              25         26         27         28         29         30
     1  C   -0.008185  -0.000116  -0.000092  -0.000555   0.000006  -0.000006
     2  H   -0.000294  -0.000005  -0.000014  -0.000026   0.000000  -0.000001
     3  H   -0.001166  -0.000004   0.000011   0.000112   0.000005  -0.000007
     4  C    0.000010  -0.000002  -0.000016   0.000000   0.000002   0.000003
     5  H    0.000022   0.000001   0.000000  -0.000001   0.000000   0.000000
     6  N    0.002439   0.000025  -0.000063  -0.000033  -0.000006   0.000005
     7  H    0.002916   0.000024   0.000019  -0.000057   0.000014   0.000006
     8  H    0.000025  -0.000001  -0.000002   0.000004   0.000000   0.000000
     9  H   -0.000022  -0.000001   0.000001   0.000000   0.000000   0.000000
    10  C   -0.076934  -0.001434  -0.002533  -0.001017   0.000248   0.001015
    11  H   -0.001011   0.000028  -0.000016  -0.000085   0.000004  -0.000005
    12  C   -0.693305  -0.005409   0.000887  -0.040355  -0.000015   0.002188
    13  C   -1.284114   0.004653   0.008749  -0.068545   0.000746  -0.000165
    14  H    0.061705   0.001370   0.003668  -0.003461  -0.000885   0.000805
    15  O   -0.031279  -0.000464   0.000041   0.000082   0.000005   0.000025
    16  C    0.889838   0.143725   0.073412  -0.093481  -0.012608   0.010986
    17  C   -1.286867  -0.015213   0.038815   0.020446   0.004805   0.011281
    18  C   -1.901116  -0.076028  -0.104611   0.179036   0.004910   0.017697
    19  O   -0.012901   0.001647   0.000363  -0.001043   0.000063   0.000058
    20  C   -0.154586  -0.074813   0.069433  -0.260782   0.013088   0.008204
    21  C   -1.325283  -0.243933  -0.098129   0.375594  -0.022248  -0.062155
    22  H   -0.281057  -0.010320  -0.048391   0.021774   0.002022  -0.004715
    23  H   -0.010451  -0.000784   0.000391   0.000235   0.000053   0.000011
    24  H   -0.008719  -0.012479   0.000114   0.005117   0.000580   0.000720
    25  C   11.567672   0.623748  -0.001139  -0.371386  -0.007865  -0.004494
    26  H    0.623748   0.472855  -0.017480  -0.017541  -0.007084  -0.010860
    27  O   -0.001139  -0.017480   8.215387   0.167866  -0.032106  -0.035095
    28  C   -0.371386  -0.017541   0.167866   5.274681   0.404312   0.405060
    29  H   -0.007865  -0.007084  -0.032106   0.404312   0.560403  -0.059780
    30  H   -0.004494  -0.010860  -0.035095   0.405060  -0.059780   0.563580
    31  H    0.016926   0.002984  -0.066340   0.396787  -0.021892  -0.019958
              31
     1  C   -0.000046
     2  H   -0.000001
     3  H   -0.000004
     4  C   -0.000003
     5  H    0.000000
     6  N   -0.000002
     7  H   -0.000007
     8  H    0.000000
     9  H    0.000000
    10  C   -0.000916
    11  H   -0.000002
    12  C   -0.003123
    13  C   -0.001689
    14  H    0.000408
    15  O    0.000004
    16  C    0.000233
    17  C   -0.005234
    18  C   -0.005107
    19  O   -0.000040
    20  C   -0.015370
    21  C    0.052541
    22  H   -0.000507
    23  H   -0.000016
    24  H    0.000150
    25  C    0.016926
    26  H    0.002984
    27  O   -0.066340
    28  C    0.396787
    29  H   -0.021892
    30  H   -0.019958
    31  H    0.455977
 Mulliken charges:
               1
     1  C   -0.462981
     2  H    0.225398
     3  H    0.199322
     4  C   -0.332931
     5  H    0.202137
     6  N    0.125569
     7  H    0.197913
     8  H    0.156649
     9  H    0.196334
    10  C    0.462268
    11  H    0.244030
    12  C   -0.391448
    13  C   -0.522251
    14  H    0.125332
    15  O   -0.400869
    16  C    2.000195
    17  C    0.106356
    18  C   -1.969283
    19  O   -0.367201
    20  C   -0.291661
    21  C   -0.862959
    22  H    0.201426
    23  H    0.367482
    24  H    0.254192
    25  C    0.296871
    26  H    0.242910
    27  O   -0.173129
    28  C   -0.392737
    29  H    0.173223
    30  H    0.175597
    31  H    0.214248
 Sum of Mulliken charges =   0.00000
 Mulliken charges with hydrogens summed into heavy atoms:
               1
     1  C    0.159652
     4  C    0.222189
     6  N    0.125569
    10  C    0.706298
    12  C   -0.266116
    13  C   -0.522251
    15  O   -0.400869
    16  C    2.000195
    17  C    0.106356
    18  C   -1.767857
    19  O    0.000280
    20  C   -0.037469
    21  C   -0.862959
    25  C    0.539781
    27  O   -0.173129
    28  C    0.170330
 Electronic spatial extent (au):  <R**2>=           5321.6494
 Charge=              0.0000 electrons
 Dipole moment (field-independent basis, Debye):
    X=             -4.7365    Y=             -6.8416    Z=             -0.1997  Tot=              8.3236
 Quadrupole moment (field-independent basis, Debye-Ang):
   XX=            -42.0938   YY=           -103.0103   ZZ=            -98.9077
   XY=              1.8760   XZ=              0.1771   YZ=              0.3292
 Traceless Quadrupole moment (field-independent basis, Debye-Ang):
   XX=             39.2434   YY=            -21.6730   ZZ=            -17.5704
   XY=              1.8760   XZ=              0.1771   YZ=              0.3292
 Octapole moment (field-independent basis, Debye-Ang**2):
  XXX=            -94.9265  YYY=            -61.1962  ZZZ=              0.2450  XYY=            -15.7627
  XXY=            -64.3747  XXZ=             -0.8666  XZZ=             -6.7946  YZZ=             -2.7797
  YYZ=             -0.3127  XYZ=             -1.5176
 Hexadecapole moment (field-independent basis, Debye-Ang**3):
 XXXX=          -3807.9699 YYYY=          -1661.9982 ZZZZ=           -130.1687 XXXY=            -39.6631
 XXXZ=             -8.2755 YYYX=            -61.6159 YYYZ=              1.6472 ZZZX=              3.1455
 ZZZY=              1.7413 XXYY=           -992.1928 XXZZ=           -924.3641 YYZZ=           -291.5141
 XXYZ=              2.4267 YYXZ=              4.7676 ZZXY=             -6.9530
 N-N= 1.053029961714D+03 E-N=-3.849537746101D+03  KE= 7.437541811568D+02
 1\1\GINC-NXV29\FOpt\RwB97XD\6-311++G(d,p)\C12H15N1O3\CA12053\27-Jul-20
 17\0\\# wb97xd 6-311++g** opt SCRF=(PCM,solvent=dichloromethane)\\Geom
  Opt s0\\0,1\C,-0.0111006351,0.345958597,8.5224771079\H,0.9014787696,0
 .8925561853,8.7529452959\H,-0.8595386809,1.0341925906,8.5834771533\C,1
 .2935585852,0.0892977086,6.4201949213\H,1.3780261977,1.1681427899,6.26
 42013306\N,0.097930772,-0.2191190136,7.1882710921\H,-0.1443397508,-0.4
 450987927,9.2659435207\H,1.2446579047,-0.4029767243,5.449976674\H,2.18
 3671939,-0.2617951787,6.9485341549\C,-0.8791216527,-0.9696525336,6.688
 3272003\H,-0.7134137114,-1.3455917446,5.6834422292\C,-2.0518369527,-1.
 3076189299,7.3163979149\C,-3.0020284837,-2.1269425603,6.6227760754\H,-
 2.2633226201,-0.9509177356,8.312285232\O,-2.8089349376,-2.5099992274,5
 .4460522923\C,-4.2704330313,-2.5365441197,7.299647209\C,-5.2623400948,
 -3.2241865597,6.563810349\C,-4.5147978436,-2.2663624545,8.6499481211\O
 ,-5.1092519615,-3.5450742013,5.2643393541\C,-6.450460874,-3.5903107526
 ,7.1912159194\C,-5.6956745546,-2.6437456901,9.2706970309\H,-3.77639046
 14,-1.7595158382,9.2571386364\H,-4.1996189963,-3.2426494296,5.02436489
 4\H,-7.2025771649,-4.1115985721,6.6106287517\C,-6.6745418668,-3.307373
 3989,8.5295987271\H,-7.6101240031,-3.61192369,8.9804778549\O,-5.809482
 3656,-2.3281708236,10.5929079443\C,-6.9911170607,-2.719249488,11.26624
 25289\H,-7.8751757328,-2.2399267204,10.8326061818\H,-7.1191568645,-3.8
 067977962,11.2465082039\H,-6.8749608674,-2.3911898958,12.2974640986\\V
 ersion=ES64L-G09RevD.01\State=1-A\HF=-746.6827839\RMSD=8.440e-09\RMSF=
 2.806e-06\Dipole=1.9898585,1.7758815,1.9002097\Quadrupole=19.8966347,-
 6.9980249,-12.8986098,14.3118825,-10.2702707,-5.1847505\PG=C01 [X(C12H
 15N1O3)]\\@


 I am not a vegetarian because I love animals;
 I am a vegetarian because I hate plants.
                               -- A. Whitney Brown
 Job cpu time:       0 days 21 hours 32 minutes 35.7 seconds.
 File lengths (MBytes):  RWF=    301 Int=      0 D2E=      0 Chk=     31 Scr=      1
 Normal termination of Gaussian 09 at Thu Jul 27 22:18:06 2017.
