 Entering Gaussian System, Link 0=g09
 Input=5_optS1_rotated_chain.com
 Output=5_optS1_rotated_chain.out
 Initial command:
 /share/apps/gaussian/g09_D01/g09/l1.exe "/tmp/93669.1.all.q/Gau-11756.inp" -scrdir="/tmp/93669.1.all.q/"
 Entering Link 1 = /share/apps/gaussian/g09_D01/g09/l1.exe PID=     11757.
  
 Copyright (c) 1988,1990,1992,1993,1995,1998,2003,2009,2013,
            Gaussian, Inc.  All Rights Reserved.
  
 This is part of the Gaussian(R) 09 program.  It is based on
 the Gaussian(R) 03 system (copyright 2003, Gaussian, Inc.),
 the Gaussian(R) 98 system (copyright 1998, Gaussian, Inc.),
 the Gaussian(R) 94 system (copyright 1995, Gaussian, Inc.),
 the Gaussian 92(TM) system (copyright 1992, Gaussian, Inc.),
 the Gaussian 90(TM) system (copyright 1990, Gaussian, Inc.),
 the Gaussian 88(TM) system (copyright 1988, Gaussian, Inc.),
 the Gaussian 86(TM) system (copyright 1986, Carnegie Mellon
 University), and the Gaussian 82(TM) system (copyright 1983,
 Carnegie Mellon University). Gaussian is a federally registered
 trademark of Gaussian, Inc.
  
 This software contains proprietary and confidential information,
 including trade secrets, belonging to Gaussian, Inc.
  
 This software is provided under written license and may be
 used, copied, transmitted, or stored only in accord with that
 written license.
  
 The following legend is applicable only to US Government
 contracts under FAR:
  
                    RESTRICTED RIGHTS LEGEND
  
 Use, reproduction and disclosure by the US Government is
 subject to restrictions as set forth in subparagraphs (a)
 and (c) of the Commercial Computer Software - Restricted
 Rights clause in FAR 52.227-19.
  
 Gaussian, Inc.
 340 Quinnipiac St., Bldg. 40, Wallingford CT 06492
  
  
 ---------------------------------------------------------------
 Warning -- This program may not be used in any manner that
 competes with the business of Gaussian, Inc. or will provide
 assistance to any competitor of Gaussian, Inc.  The licensee
 of this program is prohibited from giving any competitor of
 Gaussian, Inc. access to this program.  By using this program,
 the user acknowledges that Gaussian, Inc. is engaged in the
 business of creating and licensing software in the field of
 computational chemistry and represents and warrants to the
 licensee that it is not a competitor of Gaussian, Inc. and that
 it will not use this program in any manner prohibited above.
 ---------------------------------------------------------------
  

 Cite this work as:
 Gaussian 09, Revision D.01,
 M. J. Frisch, G. W. Trucks, H. B. Schlegel, G. E. Scuseria, 
 M. A. Robb, J. R. Cheeseman, G. Scalmani, V. Barone, B. Mennucci, 
 G. A. Petersson, H. Nakatsuji, M. Caricato, X. Li, H. P. Hratchian, 
 A. F. Izmaylov, J. Bloino, G. Zheng, J. L. Sonnenberg, M. Hada, 
 M. Ehara, K. Toyota, R. Fukuda, J. Hasegawa, M. Ishida, T. Nakajima, 
 Y. Honda, O. Kitao, H. Nakai, T. Vreven, J. A. Montgomery, Jr., 
 J. E. Peralta, F. Ogliaro, M. Bearpark, J. J. Heyd, E. Brothers, 
 K. N. Kudin, V. N. Staroverov, T. Keith, R. Kobayashi, J. Normand, 
 K. Raghavachari, A. Rendell, J. C. Burant, S. S. Iyengar, J. Tomasi, 
 M. Cossi, N. Rega, J. M. Millam, M. Klene, J. E. Knox, J. B. Cross, 
 V. Bakken, C. Adamo, J. Jaramillo, R. Gomperts, R. E. Stratmann, 
 O. Yazyev, A. J. Austin, R. Cammi, C. Pomelli, J. W. Ochterski, 
 R. L. Martin, K. Morokuma, V. G. Zakrzewski, G. A. Voth, 
 P. Salvador, J. J. Dannenberg, S. Dapprich, A. D. Daniels, 
 O. Farkas, J. B. Foresman, J. V. Ortiz, J. Cioslowski, 
 and D. J. Fox, Gaussian, Inc., Wallingford CT, 2013.
 
 ******************************************
 Gaussian 09:  ES64L-G09RevD.01 24-Apr-2013
                26-Jul-2017 
 ******************************************
 %chk=5_optS1_rotated_chain.chk
 %mem=28GB
 %nproc=4
 Will use up to    4 processors via shared memory.
 ---------------------------------------------
 # wb97xd 6-311++g** opt td=(nstates=1,root=1)
 ---------------------------------------------
 1/14=-1,18=20,19=15,26=3,38=1/1,3;
 2/9=110,12=2,17=6,18=5,40=1/2;
 3/5=4,6=6,7=1111,11=9,16=1,25=1,30=1,71=1,74=-58/1,2,8,3;
 4//1;
 5/5=2,38=5/2;
 8/6=1,10=2,107=1,108=1/1;
 9/8=1,15=2,41=1,42=1,70=2/14;
 10/5=4/2;
 6/7=2,8=2,9=2,10=2/1;
 7/12=6,13=5,14=1/1,2,3,16;
 1/14=-1,18=20,19=15,26=3/3(2);
 2/9=110/2;
 99//99;
 2/9=110/2;
 3/5=4,6=6,7=1111,11=9,16=1,25=1,30=1,71=1,74=-58/1,2,8,3;
 4/5=5,16=3,69=1/1;
 5/5=2,38=5/2;
 8/6=1,10=2,107=1,108=1/1;
 9/8=1,15=2,41=1,42=1,49=4,70=2/14;
 10/5=4/2;
 7/12=6,13=5,14=1/1,2,3,16;
 1/14=-1,18=20,19=15,26=3/3(-8);
 2/9=110/2;
 6/7=2,8=2,9=2,10=2/1;
 99//99;
 -----------
 Geom Opt s1
 -----------
 Symbolic Z-matrix:
 Charge =  0 Multiplicity = 1
 C                    -12.17139   1.19559   13.25421 
 H                    -12.7707   0.82225   14.08263 
 H                    -11.14877   0.82606   13.36164 
 C                    -13.88729  -0.17695   12.09009 
 H                    -13.60129  -1.08322   12.62977 
 N                    -12.75653   0.73264   12.00343 
 H                    -12.16389   2.2871    13.2866 
 H                    -14.21953  -0.45006   11.09016 
 H                    -14.71324   0.30521   12.61896 
 C                    -12.26688   1.11623   10.82856 
 H                    -12.78411   0.73784   9.95389 
 C                    -11.16653   1.93517   10.63039 
 C                    -10.84595   2.39251   9.27816 
 H                    -10.67883   2.40965   11.4807 
 O                    -11.61103   3.43662   9.1376 
 C                    -9.88183   1.8792    8.38189 
 C                    -9.68558   2.49243   7.11042 
 C                    -9.0932    0.74802   8.69167 
 O                    -10.3977   3.58485   6.74484 
 C                    -8.75991   1.97727   6.22135 
 C                    -8.1687    0.24385   7.79139 
 H                    -9.2183    0.27182   9.6591 
 H                    -10.99096   3.82734   7.4772 
 H                    -8.64037   2.47116   5.2638 
 C                    -7.99976   0.85476   6.55246 
 H                    -7.27754   0.46807   5.84312 
 O                    -7.41675  -0.85649   8.12905 
 C                    -6.48517  -1.28752   7.11912 
 H                    -6.37666  -2.14293   6.44264 
 H                    -5.55484  -1.15241   7.67052 
 H                    -6.40761  -0.54342   6.31752 
 

 GradGradGradGradGradGradGradGradGradGradGradGradGradGradGradGradGradGrad
 Berny optimization.
 Initialization pass.
                           ----------------------------
                           !    Initial Parameters    !
                           ! (Angstroms and Degrees)  !
 --------------------------                            --------------------------
 ! Name  Definition              Value          Derivative Info.                !
 --------------------------------------------------------------------------------
 ! R1    R(1,2)                  1.0885         estimate D2E/DX2                !
 ! R2    R(1,3)                  1.0926         estimate D2E/DX2                !
 ! R3    R(1,6)                  1.4564         estimate D2E/DX2                !
 ! R4    R(1,7)                  1.092          estimate D2E/DX2                !
 ! R5    R(4,5)                  1.0929         estimate D2E/DX2                !
 ! R6    R(4,6)                  1.4538         estimate D2E/DX2                !
 ! R7    R(4,8)                  1.0885         estimate D2E/DX2                !
 ! R8    R(4,9)                  1.0929         estimate D2E/DX2                !
 ! R9    R(6,10)                 1.3294         estimate D2E/DX2                !
 ! R10   R(10,11)                1.0843         estimate D2E/DX2                !
 ! R11   R(10,12)                1.3859         estimate D2E/DX2                !
 ! R12   R(12,13)                1.463          estimate D2E/DX2                !
 ! R13   R(12,14)                1.089          estimate D2E/DX2                !
 ! R14   R(13,15)                1.302          estimate D2E/DX2                !
 ! R15   R(13,16)                1.4129         estimate D2E/DX2                !
 ! R16   R(16,17)                1.4252         estimate D2E/DX2                !
 ! R17   R(16,18)                1.4133         estimate D2E/DX2                !
 ! R18   R(17,19)                1.3543         estimate D2E/DX2                !
 ! R19   R(17,20)                1.383          estimate D2E/DX2                !
 ! R20   R(18,21)                1.3854         estimate D2E/DX2                !
 ! R21   R(18,22)                1.0855         estimate D2E/DX2                !
 ! R22   R(19,23)                0.9732         estimate D2E/DX2                !
 ! R23   R(20,24)                1.084          estimate D2E/DX2                !
 ! R24   R(20,25)                1.3955         estimate D2E/DX2                !
 ! R25   R(21,25)                1.3917         estimate D2E/DX2                !
 ! R26   R(21,27)                1.3748         estimate D2E/DX2                !
 ! R27   R(25,26)                1.0836         estimate D2E/DX2                !
 ! R28   R(27,28)                1.44           estimate D2E/DX2                !
 ! R29   R(28,29)                1.0959         estimate D2E/DX2                !
 ! R30   R(28,30)                1.0899         estimate D2E/DX2                !
 ! R31   R(28,31)                1.0965         estimate D2E/DX2                !
 ! A1    A(2,1,3)              108.9338         estimate D2E/DX2                !
 ! A2    A(2,1,6)              108.867          estimate D2E/DX2                !
 ! A3    A(2,1,7)              108.9076         estimate D2E/DX2                !
 ! A4    A(3,1,6)              110.6682         estimate D2E/DX2                !
 ! A5    A(3,1,7)              109.1899         estimate D2E/DX2                !
 ! A6    A(6,1,7)              110.2399         estimate D2E/DX2                !
 ! A7    A(5,4,6)              110.1648         estimate D2E/DX2                !
 ! A8    A(5,4,8)              108.9928         estimate D2E/DX2                !
 ! A9    A(5,4,9)              108.9453         estimate D2E/DX2                !
 ! A10   A(6,4,8)              109.8544         estimate D2E/DX2                !
 ! A11   A(6,4,9)              109.9156         estimate D2E/DX2                !
 ! A12   A(8,4,9)              108.9401         estimate D2E/DX2                !
 ! A13   A(1,6,4)              117.3994         estimate D2E/DX2                !
 ! A14   A(1,6,10)             121.2846         estimate D2E/DX2                !
 ! A15   A(4,6,10)             121.3125         estimate D2E/DX2                !
 ! A16   A(6,10,11)            115.8813         estimate D2E/DX2                !
 ! A17   A(6,10,12)            126.1088         estimate D2E/DX2                !
 ! A18   A(11,10,12)           118.0081         estimate D2E/DX2                !
 ! A19   A(10,12,13)           119.3966         estimate D2E/DX2                !
 ! A20   A(10,12,14)           120.0907         estimate D2E/DX2                !
 ! A21   A(13,12,14)           119.165          estimate D2E/DX2                !
 ! A22   A(12,13,15)           102.8087         estimate D2E/DX2                !
 ! A23   A(12,13,16)           128.4809         estimate D2E/DX2                !
 ! A24   A(15,13,16)           128.5956         estimate D2E/DX2                !
 ! A25   A(13,16,17)           120.2358         estimate D2E/DX2                !
 ! A26   A(13,16,18)           122.1746         estimate D2E/DX2                !
 ! A27   A(17,16,18)           117.5862         estimate D2E/DX2                !
 ! A28   A(16,17,19)           121.0301         estimate D2E/DX2                !
 ! A29   A(16,17,20)           120.3582         estimate D2E/DX2                !
 ! A30   A(19,17,20)           118.6116         estimate D2E/DX2                !
 ! A31   A(16,18,21)           121.4123         estimate D2E/DX2                !
 ! A32   A(16,18,22)           118.8255         estimate D2E/DX2                !
 ! A33   A(21,18,22)           119.7619         estimate D2E/DX2                !
 ! A34   A(17,19,23)           108.5654         estimate D2E/DX2                !
 ! A35   A(17,20,24)           118.1609         estimate D2E/DX2                !
 ! A36   A(17,20,25)           120.7753         estimate D2E/DX2                !
 ! A37   A(24,20,25)           121.0636         estimate D2E/DX2                !
 ! A38   A(18,21,25)           119.9847         estimate D2E/DX2                !
 ! A39   A(18,21,27)           119.7773         estimate D2E/DX2                !
 ! A40   A(25,21,27)           120.2374         estimate D2E/DX2                !
 ! A41   A(20,25,21)           119.8812         estimate D2E/DX2                !
 ! A42   A(20,25,26)           119.6531         estimate D2E/DX2                !
 ! A43   A(21,25,26)           120.465          estimate D2E/DX2                !
 ! A44   A(21,27,28)           114.907          estimate D2E/DX2                !
 ! A45   A(27,28,29)           136.9353         estimate D2E/DX2                !
 ! A46   A(27,28,30)            99.2239         estimate D2E/DX2                !
 ! A47   A(27,28,31)           110.815          estimate D2E/DX2                !
 ! A48   A(29,28,30)           108.9373         estimate D2E/DX2                !
 ! A49   A(29,28,31)            94.096          estimate D2E/DX2                !
 ! A50   A(30,28,31)           103.0245         estimate D2E/DX2                !
 ! D1    D(2,1,6,4)             -4.923          estimate D2E/DX2                !
 ! D2    D(2,1,6,10)           175.7487         estimate D2E/DX2                !
 ! D3    D(3,1,6,4)            114.7731         estimate D2E/DX2                !
 ! D4    D(3,1,6,10)           -64.5552         estimate D2E/DX2                !
 ! D5    D(7,1,6,4)           -124.3281         estimate D2E/DX2                !
 ! D6    D(7,1,6,10)            56.3436         estimate D2E/DX2                !
 ! D7    D(5,4,6,1)            -59.3967         estimate D2E/DX2                !
 ! D8    D(5,4,6,10)           119.9315         estimate D2E/DX2                !
 ! D9    D(8,4,6,1)           -179.4772         estimate D2E/DX2                !
 ! D10   D(8,4,6,10)            -0.1491         estimate D2E/DX2                !
 ! D11   D(9,4,6,1)             60.6637         estimate D2E/DX2                !
 ! D12   D(9,4,6,10)          -120.0081         estimate D2E/DX2                !
 ! D13   D(1,6,10,11)         -178.5958         estimate D2E/DX2                !
 ! D14   D(1,6,10,12)            1.9001         estimate D2E/DX2                !
 ! D15   D(4,6,10,11)            2.1022         estimate D2E/DX2                !
 ! D16   D(4,6,10,12)         -177.4019         estimate D2E/DX2                !
 ! D17   D(6,10,12,13)        -172.9071         estimate D2E/DX2                !
 ! D18   D(6,10,12,14)          -6.2678         estimate D2E/DX2                !
 ! D19   D(11,10,12,13)          7.5982         estimate D2E/DX2                !
 ! D20   D(11,10,12,14)        174.2375         estimate D2E/DX2                !
 ! D21   D(10,12,13,15)         84.1857         estimate D2E/DX2                !
 ! D22   D(10,12,13,16)        -99.4827         estimate D2E/DX2                !
 ! D23   D(14,12,13,15)        -82.578          estimate D2E/DX2                !
 ! D24   D(14,12,13,16)         93.7536         estimate D2E/DX2                !
 ! D25   D(12,13,16,17)       -177.9842         estimate D2E/DX2                !
 ! D26   D(12,13,16,18)          2.7089         estimate D2E/DX2                !
 ! D27   D(15,13,16,17)         -2.5628         estimate D2E/DX2                !
 ! D28   D(15,13,16,18)        178.1303         estimate D2E/DX2                !
 ! D29   D(13,16,17,19)          1.0738         estimate D2E/DX2                !
 ! D30   D(13,16,17,20)       -178.808          estimate D2E/DX2                !
 ! D31   D(18,16,17,19)       -179.588          estimate D2E/DX2                !
 ! D32   D(18,16,17,20)          0.5301         estimate D2E/DX2                !
 ! D33   D(13,16,18,21)        178.8526         estimate D2E/DX2                !
 ! D34   D(13,16,18,22)         -1.3517         estimate D2E/DX2                !
 ! D35   D(17,16,18,21)         -0.4718         estimate D2E/DX2                !
 ! D36   D(17,16,18,22)        179.3239         estimate D2E/DX2                !
 ! D37   D(16,17,19,23)          0.8551         estimate D2E/DX2                !
 ! D38   D(20,17,19,23)       -179.261          estimate D2E/DX2                !
 ! D39   D(16,17,20,24)        179.937          estimate D2E/DX2                !
 ! D40   D(16,17,20,25)         -0.2385         estimate D2E/DX2                !
 ! D41   D(19,17,20,24)          0.0524         estimate D2E/DX2                !
 ! D42   D(19,17,20,25)        179.8769         estimate D2E/DX2                !
 ! D43   D(16,18,21,25)          0.1159         estimate D2E/DX2                !
 ! D44   D(16,18,21,27)        179.8359         estimate D2E/DX2                !
 ! D45   D(22,18,21,25)       -179.6779         estimate D2E/DX2                !
 ! D46   D(22,18,21,27)          0.042          estimate D2E/DX2                !
 ! D47   D(17,20,25,21)         -0.133          estimate D2E/DX2                !
 ! D48   D(17,20,25,26)       -179.823          estimate D2E/DX2                !
 ! D49   D(24,20,25,21)        179.6863         estimate D2E/DX2                !
 ! D50   D(24,20,25,26)         -0.0036         estimate D2E/DX2                !
 ! D51   D(18,21,25,20)          0.1956         estimate D2E/DX2                !
 ! D52   D(18,21,25,26)        179.883          estimate D2E/DX2                !
 ! D53   D(27,21,25,20)       -179.523          estimate D2E/DX2                !
 ! D54   D(27,21,25,26)          0.1644         estimate D2E/DX2                !
 ! D55   D(18,21,27,28)       -179.7192         estimate D2E/DX2                !
 ! D56   D(25,21,27,28)          0.0            estimate D2E/DX2                !
 ! D57   D(21,27,28,29)       -110.7631         estimate D2E/DX2                !
 ! D58   D(21,27,28,30)        118.2978         estimate D2E/DX2                !
 ! D59   D(21,27,28,31)         10.4796         estimate D2E/DX2                !
 --------------------------------------------------------------------------------
 Trust Radius=3.00D-01 FncErr=1.00D-07 GrdErr=1.00D-06
 Number of steps in this run=    150 maximum allowed number of steps=    186.
 GradGradGradGradGradGradGradGradGradGradGradGradGradGradGradGradGradGrad

                          Input orientation:                          
 ---------------------------------------------------------------------
 Center     Atomic      Atomic             Coordinates (Angstroms)
 Number     Number       Type             X           Y           Z
 ---------------------------------------------------------------------
      1          6           0      -12.171389    1.195593   13.254213
      2          1           0      -12.770699    0.822246   14.082633
      3          1           0      -11.148771    0.826064   13.361638
      4          6           0      -13.887295   -0.176954   12.090086
      5          1           0      -13.601288   -1.083224   12.629767
      6          7           0      -12.756531    0.732641   12.003435
      7          1           0      -12.163888    2.287104   13.286600
      8          1           0      -14.219526   -0.450062   11.090156
      9          1           0      -14.713239    0.305209   12.618960
     10          6           0      -12.266877    1.116230   10.828557
     11          1           0      -12.784106    0.737837    9.953895
     12          6           0      -11.166531    1.935167   10.630391
     13          6           0      -10.845949    2.392509    9.278159
     14          1           0      -10.678830    2.409654   11.480696
     15          8           0      -11.611032    3.436624    9.137600
     16          6           0       -9.881832    1.879198    8.381894
     17          6           0       -9.685576    2.492433    7.110420
     18          6           0       -9.093201    0.748019    8.691666
     19          8           0      -10.397704    3.584853    6.744835
     20          6           0       -8.759908    1.977274    6.221347
     21          6           0       -8.168697    0.243851    7.791389
     22          1           0       -9.218298    0.271821    9.659101
     23          1           0      -10.990963    3.827342    7.477197
     24          1           0       -8.640373    2.471157    5.263804
     25          6           0       -7.999756    0.854759    6.552459
     26          1           0       -7.277538    0.468070    5.843117
     27          8           0       -7.416751   -0.856490    8.129047
     28          6           0       -6.485166   -1.287523    7.119117
     29          1           0       -6.376659   -2.142928    6.442644
     30          1           0       -5.554844   -1.152414    7.670516
     31          1           0       -6.407612   -0.543420    6.317516
 ---------------------------------------------------------------------
                    Distance matrix (angstroms):
                    1          2          3          4          5
     1  C    0.000000
     2  H    1.088504   0.000000
     3  H    1.092630   1.774965   0.000000
     4  C    2.486646   2.493077   3.181573   0.000000
     5  H    2.761802   2.536044   3.193096   1.092878   0.000000
     6  N    1.456421   2.081177   2.106737   1.453787   2.098398
     7  H    1.092017   1.774175   1.780655   3.236256   3.722454
     8  H    3.403849   3.559886   4.027116   1.088497   1.775814
     9  H    2.767188   2.486590   3.678083   1.092873   1.778847
    10  C    2.428832   3.305946   2.784037   2.426836   3.140480
    11  H    3.387781   4.129623   3.780849   2.572388   3.338314
    12  C    2.905366   3.966097   2.947904   3.740898   4.363053
    13  C    4.358717   5.408638   4.384091   4.874306   5.559307
    14  H    2.616685   3.696736   2.503307   4.166070   4.696948
    15  O    4.720459   5.712544   4.987105   5.191964   6.048585
    16  C    5.426683   6.477741   5.245196   5.832854   6.376106
    17  C    6.753315   7.805080   6.632907   7.041104   7.653843
    18  C    5.521993   6.526257   5.102950   5.948796   6.259788
    19  O    7.157271   8.191849   7.208128   7.409463   8.166169
    20  C    7.855599   8.900582   7.616804   8.085350   8.594967
    21  C    6.838845   7.816183   6.344091   7.166466   7.394868
    22  H    4.743304   5.700014   4.212208   5.283051   5.465493
    23  H    6.457045   7.471938   6.607513   6.760316   7.581322
    24  H    8.828464   9.876753   8.635584   9.007819   9.565653
    25  C    7.901405   8.914397   7.502135   8.148181   8.489205
    26  H    8.910860   9.909081   8.464205   9.117542   9.405049
    27  O    7.285942   8.180960   6.643716   7.617055   7.652214
    28  C    8.725732   9.615072   8.073756   8.985288   9.002677
    29  H    9.545789  10.394491   8.914059   9.600433   9.570723
    30  H    8.970478   9.853075   8.221634   9.482292   9.452207
    31  H    9.184936  10.131681   8.600798   9.455290   9.585660
                    6          7          8          9         10
     6  N    0.000000
     7  H    2.100974   0.000000
     8  H    2.091224   4.067196   0.000000
     9  H    2.095298   3.297399   1.775226   0.000000
    10  C    1.329376   2.724615   2.516852   3.138150   0.000000
    11  H    2.049732   3.727173   2.182343   3.318327   1.084316
    12  C    2.420623   2.859025   3.901471   4.380674   1.385889
    13  C    3.719222   4.220862   4.769126   5.520299   2.460012
    14  H    2.720748   2.341304   4.568043   4.690499   2.149447
    15  O    4.103255   4.340651   5.071788   5.616877   2.945114
    16  C    4.763827   5.424971   5.619228   6.616091   3.500960
    17  C    6.038976   6.658032   6.712173   7.772088   4.730919
    18  C    4.938425   5.736839   5.785098   6.870556   3.843709
    19  O    6.430556   6.899148   7.054691   7.992825   5.124909
    20  C    7.138252   7.848622   7.707443   8.897606   5.853768
    21  C    6.247277   7.094630   6.926464   8.132665   5.174989
    22  H    4.269350   5.088872   5.251792   6.241495   3.372609
    23  H    5.760316   6.123500   6.463225   7.259372   4.495520
    24  H    8.086273   8.764376   8.579443   9.781071   6.778925
    25  C    7.235672   8.046133   7.808891   9.065058   6.046627
    26  H    8.248569   9.087945   8.750176  10.061224   7.082953
    27  O    6.785976   7.682307   7.430416   8.645669   5.890899
    28  C    8.201685   9.113928   8.734461  10.024283   7.277785
    29  H    8.938348   9.997847   9.272309  10.660151   8.034489
    30  H    8.613473   9.330067   9.341517  10.511325   7.757020
    31  H    8.617817   9.471785   9.154933  10.460009   7.578582
                   11         12         13         14         15
    11  H    0.000000
    12  C    2.123157   0.000000
    13  C    2.636477   1.463034   0.000000
    14  H    3.091646   1.089040   2.208935   0.000000
    15  O    3.053832   2.163419   1.302032   2.722824   0.000000
    16  C    3.492433   2.590236   1.412905   3.243326   2.446794
    17  C    4.556846   3.859271   2.460801   4.482490   2.950989
    18  C    3.900783   3.076796   2.473953   3.613023   3.710381
    19  O    4.909020   4.290700   2.835549   4.887587   2.686905
    20  C    5.626925   5.023273   3.723987   5.615155   4.331644
    21  C    5.120786   4.461781   3.740975   4.960086   4.884235
    22  H    3.608194   2.739660   2.700311   3.165705   4.001639
    23  H    4.346773   3.681547   2.307215   4.258553   1.814961
    24  H    6.493987   5.955587   4.581025   6.542846   4.976267
    25  C    5.871408   5.274966   4.230239   5.820880   5.137148
    26  H    6.877031   6.339924   5.313806   6.864462   6.200412
    27  O    5.889010   5.301973   4.861671   5.704595   6.086049
    28  C    7.198242   6.680565   6.100862   7.090790   7.257158
    29  H    7.853857   7.557179   6.970286   8.038448   8.111279
    30  H    7.813392   7.055852   6.568621   7.311705   7.738800
    31  H    7.451479   6.884155   6.089656   7.322730   7.132265
                   16         17         18         19         20
    16  C    0.000000
    17  C    1.425209   0.000000
    18  C    1.413316   2.427803   0.000000
    19  O    2.419782   1.354311   3.679607   0.000000
    20  C    2.436451   1.383004   2.779321   2.353874   0.000000
    21  C    2.440878   2.796563   1.385421   4.150427   2.412326
    22  H    2.157590   3.412513   1.085515   4.567288   3.864821
    23  H    2.417420   1.902773   3.815583   0.973196   3.158721
    24  H    3.407950   2.122002   3.863223   2.553818   1.084019
    25  C    2.817537   2.415633   2.404832   3.638759   1.395530
    26  H    3.901156   3.391571   3.389578   4.501429   2.148994
    27  O    3.691144   4.171385   2.387775   5.525183   3.670642
    28  C    4.812490   4.952855   3.663084   6.260039   4.079135
    29  H    5.676656   5.734233   4.560184   7.004827   4.764968
    30  H    5.330999   5.537289   4.144196   6.837534   4.708235
    31  H    4.711787   4.537636   3.810090   5.757262   3.449122
                   21         22         23         24         25
    21  C    0.000000
    22  H    2.142613   0.000000
    23  H    4.572233   4.532635   0.000000
    24  H    3.401772   4.948708   3.501945   0.000000
    25  C    1.391653   3.387607   4.317257   2.164200   0.000000
    26  H    2.154113   4.285650   5.267301   2.491040   1.083649
    27  O    1.374840   2.619107   5.927747   4.558520   2.398729
    28  C    2.373043   4.043894   6.825854   4.713255   2.684112
    29  H    3.275245   4.924583   7.616182   5.272935   3.410665
    30  H    2.965871   4.404975   7.374736   5.333199   3.355055
    31  H    2.427656   4.441932   6.438597   3.896562   2.131907
                   26         27         28         29         30
    26  H    0.000000
    27  O    2.645622   0.000000
    28  C    2.310441   1.440000   0.000000
    29  H    2.826363   2.362344   1.095950   0.000000
    30  H    2.988818   1.940237   1.089860   1.778810   0.000000
    31  H    1.415958   2.097146   1.096480   1.604694   1.711344
                   31
    31  H    0.000000
 Stoichiometry    C12H15NO3
 Framework group  C1[X(C12H15NO3)]
 Deg. of freedom    87
 Full point group                 C1      NOp   1
 Largest Abelian subgroup         C1      NOp   1
 Largest concise Abelian subgroup C1      NOp   1
                         Standard orientation:                         
 ---------------------------------------------------------------------
 Center     Atomic      Atomic             Coordinates (Angstroms)
 Number     Number       Type             X           Y           Z
 ---------------------------------------------------------------------
      1          6           0        4.357024   -1.051128   -1.118084
      2          1           0        5.341195   -1.504740   -1.015697
      3          1           0        3.697377   -1.749168   -1.639090
      4          6           0        4.625845   -1.181385    1.350555
      5          1           0        4.751587   -2.266814    1.330177
      6          7           0        3.838510   -0.746561    0.208394
      7          1           0        4.448636   -0.136186   -1.707142
      8          1           0        4.123548   -0.900236    2.274394
      9          1           0        5.611250   -0.709493    1.324769
     10          6           0        2.683584   -0.107948    0.368266
     11          1           0        2.392476    0.094328    1.393001
     12          6           0        1.831554    0.304707   -0.643884
     13          6           0        0.672421    1.133939   -0.313349
     14          1           0        2.132276    0.203990   -1.685724
     15          8           0        1.174718    2.334896   -0.287120
     16          6           0       -0.673937    0.737898   -0.149730
     17          6           0       -1.678294    1.708725    0.133081
     18          6           0       -1.077494   -0.613404   -0.242399
     19          8           0       -1.370493    3.024104    0.228975
     20          6           0       -2.992882    1.320975    0.318040
     21          6           0       -2.398541   -0.986875   -0.056002
     22          1           0       -0.330808   -1.368316   -0.468037
     23          1           0       -0.417654    3.132253    0.063107
     24          1           0       -3.727431    2.088818    0.532406
     25          6           0       -3.360779   -0.022095    0.226836
     26          1           0       -4.396618   -0.305299    0.372188
     27          8           0       -2.754551   -2.310959   -0.157210
     28          6           0       -4.154000   -2.580172    0.049351
     29          1           0       -4.770962   -3.072380    0.809743
     30          1           0       -4.397893   -2.996567   -0.927853
     31          1           0       -4.730940   -1.648020    0.071747
 ---------------------------------------------------------------------
 Rotational constants (GHZ):      0.7723981      0.2681091      0.2112310
 Standard basis: 6-311++G(d,p) (5D, 7F)
 There are   473 symmetry adapted cartesian basis functions of A   symmetry.
 There are   457 symmetry adapted basis functions of A   symmetry.
   457 basis functions,   711 primitive gaussians,   473 cartesian basis functions
    59 alpha electrons       59 beta electrons
       nuclear repulsion energy      1054.2336932775 Hartrees.
 NAtoms=   31 NActive=   31 NUniq=   31 SFac= 1.00D+00 NAtFMM=   60 NAOKFM=F Big=F
 Integral buffers will be    131072 words long.
 Raffenetti 1 integral format.
 Two-electron integral symmetry is turned on.
 Nuclear repulsion after empirical dispersion term =     1054.2159285518 Hartrees.
 One-electron integrals computed using PRISM.
 NBasis=   457 RedAO= T EigKep=  1.18D-06  NBF=   457
 NBsUse=   455 1.00D-06 EigRej=  4.42D-07 NBFU=   455
 ExpMin= 3.60D-02 ExpMax= 8.59D+03 ExpMxC= 1.30D+03 IAcc=3 IRadAn=         5 AccDes= 0.00D+00
 Harris functional with IExCor= 4639 and IRadAn=       5 diagonalized for initial guess.
 HarFok:  IExCor= 4639 AccDes= 0.00D+00 IRadAn=         5 IDoV= 1 UseB2=F ITyADJ=14
 ICtDFT=  3500011 ScaDFX=  1.000000  1.000000  1.000000  1.000000
 FoFCou: FMM=F IPFlag=           0 FMFlag=      100000 FMFlg1=           0
         NFxFlg=           0 DoJE=T BraDBF=F KetDBF=T FulRan=T
         wScrn=  0.000000 ICntrl=     500 IOpCl=  0 I1Cent=   200000004 NGrid=           0
         NMat0=    1 NMatS0=      1 NMatT0=    0 NMatD0=    1 NMtDS0=    0 NMtDT0=    0
 Petite list used in FoFCou.
 Requested convergence on RMS density matrix=1.00D-08 within 128 cycles.
 Requested convergence on MAX density matrix=1.00D-06.
 Requested convergence on             energy=1.00D-06.
 No special actions if energy rises.
 SCF Done:  E(RwB97XD) =  -746.576486359     A.U. after   19 cycles
            NFock= 19  Conv=0.47D-08     -V/T= 2.0040
 DoSCS=F DFT=T ScalE2(SS,OS)=  1.000000  1.000000
 ExpMin= 3.60D-02 ExpMax= 8.59D+03 ExpMxC= 1.30D+03 IAcc=3 IRadAn=         5 AccDes= 0.00D+00
 HarFok:  IExCor=  205 AccDes= 0.00D+00 IRadAn=         5 IDoV=-2 UseB2=F ITyADJ=14
 ICtDFT= 12500011 ScaDFX=  1.000000  1.000000  1.000000  1.000000
 Range of M.O.s used for correlation:    17   455
 NBasis=   457 NAE=    59 NBE=    59 NFC=    16 NFV=     0
 NROrb=    439 NOA=    43 NOB=    43 NVA=   396 NVB=   396

 **** Warning!!: The largest alpha MO coefficient is  0.16946690D+03

 Would need an additional         29152300000 words for in-memory AO integral storage.
 Orbital symmetries:
       Occupied  (A) (A) (A) (A) (A) (A) (A) (A) (A) (A) (A) (A)
                 (A) (A) (A) (A) (A) (A) (A) (A) (A) (A) (A) (A)
                 (A) (A) (A) (A) (A) (A) (A) (A) (A) (A) (A) (A)
                 (A) (A) (A) (A) (A) (A) (A) (A) (A) (A) (A) (A)
                 (A) (A) (A) (A) (A) (A) (A) (A) (A) (A) (A)
       Virtual   (A) (A) (A) (A) (A) (A) (A) (A) (A) (A) (A) (A)
                 (A) (A) (A) (A) (A) (A) (A) (A) (A) (A) (A) (A)
                 (A) (A) (A) (A) (A) (A) (A) (A) (A) (A) (A) (A)
                 (A) (A) (A) (A) (A) (A) (A) (A) (A) (A) (A) (A)
                 (A) (A) (A) (A) (A) (A) (A) (A) (A) (A) (A) (A)
                 (A) (A) (A) (A) (A) (A) (A) (A) (A) (A) (A) (A)
                 (A) (A) (A) (A) (A) (A) (A) (A) (A) (A) (A) (A)
                 (A) (A) (A) (A) (A) (A) (A) (A) (A) (A) (A) (A)
                 (A) (A) (A) (A) (A) (A) (A) (A) (A) (A) (A) (A)
                 (A) (A) (A) (A) (A) (A) (A) (A) (A) (A) (A) (A)
                 (A) (A) (A) (A) (A) (A) (A) (A) (A) (A) (A) (A)
                 (A) (A) (A) (A) (A) (A) (A) (A) (A) (A) (A) (A)
                 (A) (A) (A) (A) (A) (A) (A) (A) (A) (A) (A) (A)
                 (A) (A) (A) (A) (A) (A) (A) (A) (A) (A) (A) (A)
                 (A) (A) (A) (A) (A) (A) (A) (A) (A) (A) (A) (A)
                 (A) (A) (A) (A) (A) (A) (A) (A) (A) (A) (A) (A)
                 (A) (A) (A) (A) (A) (A) (A) (A) (A) (A) (A) (A)
                 (A) (A) (A) (A) (A) (A) (A) (A) (A) (A) (A) (A)
                 (A) (A) (A) (A) (A) (A) (A) (A) (A) (A) (A) (A)
                 (A) (A) (A) (A) (A) (A) (A) (A) (A) (A) (A) (A)
                 (A) (A) (A) (A) (A) (A) (A) (A) (A) (A) (A) (A)
                 (A) (A) (A) (A) (A) (A) (A) (A) (A) (A) (A) (A)
                 (A) (A) (A) (A) (A) (A) (A) (A) (A) (A) (A) (A)
                 (A) (A) (A) (A) (A) (A) (A) (A) (A) (A) (A) (A)
                 (A) (A) (A) (A) (A) (A) (A) (A) (A) (A) (A) (A)
                 (A) (A) (A) (A) (A) (A) (A) (A) (A) (A) (A) (A)
                 (A) (A) (A) (A) (A) (A) (A) (A) (A) (A) (A) (A)
                 (A) (A) (A) (A) (A) (A) (A) (A) (A) (A) (A) (A)
                 (A) (A) (A) (A) (A) (A) (A) (A) (A) (A) (A) (A)
                 (A) (A) (A) (A) (A) (A) (A) (A) (A) (A) (A) (A)
                 (A) (A) (A) (A) (A) (A) (A) (A) (A) (A) (A) (A)
                 (A) (A) (A) (A) (A) (A) (A) (A) (A) (A) (A) (A)
                 (A) (A) (A) (A) (A) (A) (A) (A) (A) (A) (A) (A)
     8 initial guesses have been made.
 Convergence on wavefunction:    0.000001000000000
 Iteration     1 Dimension     8 NMult     0 NNew      8
 CISAX will form     8 AO SS matrices at one time.
 Iteration     2 Dimension    12 NMult     8 NNew      4
 Iteration     3 Dimension    16 NMult    12 NNew      4
 Iteration     4 Dimension    20 NMult    16 NNew      4
 Iteration     5 Dimension    24 NMult    20 NNew      4
 Iteration     6 Dimension    28 NMult    24 NNew      4
 Iteration     7 Dimension    32 NMult    28 NNew      4
 Iteration     8 Dimension    36 NMult    32 NNew      4
 Iteration     9 Dimension    40 NMult    36 NNew      4
 Iteration    10 Dimension    44 NMult    40 NNew      4
 Iteration    11 Dimension    48 NMult    44 NNew      4
 ***********************************************************************
 Excited states from <AA,BB:AA,BB> singles matrix:
 ***********************************************************************
 
 Ground to excited state transition densities written to RWF  633
 Ground to excited state transition electric dipole moments (Au):
       state          X           Y           Z        Dip. S.      Osc.
         1         0.0359      0.0256     -0.0224      0.0024      0.0001
 Ground to excited state transition velocity dipole moments (Au):
       state          X           Y           Z        Dip. S.      Osc.
         1        -0.0037     -0.0050     -0.0014      0.0000      0.0003
 Ground to excited state transition magnetic dipole moments (Au):
       state          X           Y           Z
         1         0.2217      0.3189      0.0098
 Ground to excited state transition velocity quadrupole moments (Au):
       state          XX          YY          ZZ          XY          XZ          YZ
         1         0.0053     -0.0078      0.0083     -0.0195     -0.0018      0.0009
 <0|del|b> * <b|rxdel|0> + <0|del|b> * <b|delr+rdel|0>
 Rotatory Strengths (R) in cgs (10**-40 erg-esu-cm/Gauss)
       state          XX          YY          ZZ    R(velocity)    E-M Angle
         1        -6.8652     -3.6824    -10.3223     -6.9566      168.47
 1/2[<0|r|b>*<b|rxdel|0> + (<0|rxdel|b>*<b|r|0>)*]
 Rotatory Strengths (R) in cgs (10**-40 erg-esu-cm/Gauss)
       state          XX          YY          ZZ     R(length)
         1        -5.6339     -5.7743      0.1550     -3.7511
  1/2[<0|del|b>*<b|r|0> + (<0|r|b>*<b|del|0>)*] (Au)
       state          X           Y           Z        Dip. S.   Osc.(frdel)
         1        -0.0001     -0.0001      0.0000      0.0002      0.0002

 Excitation energies and oscillator strengths:
 
 Excited State   1:      Singlet-A      2.2482 eV  551.49 nm  f=0.0001  <S**2>=0.000
      57 -> 60         0.14038
      59 -> 60         0.65932
 This state for optimization and/or second-order correction.
 Total Energy, E(TD-HF/TD-KS) =  -746.493867483    
 Copying the excited state density for this state as the 1-particle RhoCI density.
 SavETr:  write IOETrn=   770 NScale= 10 NData=  16 NLR=1 NState=    1 LETran=      28.
          IDoAtm=1111111111111111111111111111111
          Differentiating once with respect to electric field.
                with respect to dipole field.
          Differentiating once with respect to nuclear coordinates.
          There are     1 degrees of freedom in the 1st order CPHF.  IDoFFX=0 NUNeed=     1.
 LinEq1:  Iter=  0 NonCon=     1 RMS=5.16D-03 Max=1.21D-01 NDo=     1
 AX will form     1 AO Fock derivatives at one time.
 LinEq1:  Iter=  1 NonCon=     1 RMS=2.20D-03 Max=1.11D-01 NDo=     1
 LinEq1:  Iter=  2 NonCon=     1 RMS=1.62D-03 Max=4.81D-02 NDo=     1
 LinEq1:  Iter=  3 NonCon=     1 RMS=6.94D-04 Max=3.80D-02 NDo=     1
 LinEq1:  Iter=  4 NonCon=     1 RMS=4.75D-04 Max=2.32D-02 NDo=     1
 LinEq1:  Iter=  5 NonCon=     1 RMS=2.37D-04 Max=1.36D-02 NDo=     1
 LinEq1:  Iter=  6 NonCon=     1 RMS=1.25D-04 Max=6.93D-03 NDo=     1
 LinEq1:  Iter=  7 NonCon=     1 RMS=5.84D-05 Max=2.86D-03 NDo=     1
 LinEq1:  Iter=  8 NonCon=     1 RMS=3.04D-05 Max=1.68D-03 NDo=     1
 LinEq1:  Iter=  9 NonCon=     1 RMS=1.60D-05 Max=8.10D-04 NDo=     1
 LinEq1:  Iter= 10 NonCon=     1 RMS=8.18D-06 Max=4.35D-04 NDo=     1
 LinEq1:  Iter= 11 NonCon=     1 RMS=4.23D-06 Max=1.89D-04 NDo=     1
 LinEq1:  Iter= 12 NonCon=     1 RMS=1.77D-06 Max=6.15D-05 NDo=     1
 LinEq1:  Iter= 13 NonCon=     1 RMS=9.96D-07 Max=5.05D-05 NDo=     1
 LinEq1:  Iter= 14 NonCon=     1 RMS=4.58D-07 Max=1.84D-05 NDo=     1
 LinEq1:  Iter= 15 NonCon=     1 RMS=1.88D-07 Max=8.12D-06 NDo=     1
 LinEq1:  Iter= 16 NonCon=     1 RMS=7.72D-08 Max=2.27D-06 NDo=     1
 LinEq1:  Iter= 17 NonCon=     1 RMS=3.19D-08 Max=1.13D-06 NDo=     1
 LinEq1:  Iter= 18 NonCon=     1 RMS=1.35D-08 Max=2.61D-07 NDo=     1
 LinEq1:  Iter= 19 NonCon=     1 RMS=5.88D-09 Max=2.18D-07 NDo=     1
 LinEq1:  Iter= 20 NonCon=     1 RMS=2.90D-09 Max=1.12D-07 NDo=     1
 LinEq1:  Iter= 21 NonCon=     1 RMS=1.14D-09 Max=2.60D-08 NDo=     1
 LinEq1:  Iter= 22 NonCon=     1 RMS=5.01D-10 Max=1.28D-08 NDo=     1
 LinEq1:  Iter= 23 NonCon=     1 RMS=2.27D-10 Max=9.29D-09 NDo=     1
 LinEq1:  Iter= 24 NonCon=     1 RMS=1.02D-10 Max=3.16D-09 NDo=     1
 LinEq1:  Iter= 25 NonCon=     1 RMS=4.54D-11 Max=1.96D-09 NDo=     1
 LinEq1:  Iter= 26 NonCon=     0 RMS=2.09D-11 Max=8.77D-10 NDo=     1
 Linear equations converged to 1.000D-10 1.000D-09 after    26 iterations.
 End of Minotr F.D. properties file   721 does not exist.
 End of Minotr F.D. properties file   722 does not exist.
 End of Minotr F.D. properties file   788 does not exist.

 **********************************************************************

            Population analysis using the SCF density.

 **********************************************************************

 Orbital symmetries:
       Occupied  (A) (A) (A) (A) (A) (A) (A) (A) (A) (A) (A) (A)
                 (A) (A) (A) (A) (A) (A) (A) (A) (A) (A) (A) (A)
                 (A) (A) (A) (A) (A) (A) (A) (A) (A) (A) (A) (A)
                 (A) (A) (A) (A) (A) (A) (A) (A) (A) (A) (A) (A)
                 (A) (A) (A) (A) (A) (A) (A) (A) (A) (A) (A)
       Virtual   (A) (A) (A) (A) (A) (A) (A) (A) (A) (A) (A) (A)
                 (A) (A) (A) (A) (A) (A) (A) (A) (A) (A) (A) (A)
                 (A) (A) (A) (A) (A) (A) (A) (A) (A) (A) (A) (A)
                 (A) (A) (A) (A) (A) (A) (A) (A) (A) (A) (A) (A)
                 (A) (A) (A) (A) (A) (A) (A) (A) (A) (A) (A) (A)
                 (A) (A) (A) (A) (A) (A) (A) (A) (A) (A) (A) (A)
                 (A) (A) (A) (A) (A) (A) (A) (A) (A) (A) (A) (A)
                 (A) (A) (A) (A) (A) (A) (A) (A) (A) (A) (A) (A)
                 (A) (A) (A) (A) (A) (A) (A) (A) (A) (A) (A) (A)
                 (A) (A) (A) (A) (A) (A) (A) (A) (A) (A) (A) (A)
                 (A) (A) (A) (A) (A) (A) (A) (A) (A) (A) (A) (A)
                 (A) (A) (A) (A) (A) (A) (A) (A) (A) (A) (A) (A)
                 (A) (A) (A) (A) (A) (A) (A) (A) (A) (A) (A) (A)
                 (A) (A) (A) (A) (A) (A) (A) (A) (A) (A) (A) (A)
                 (A) (A) (A) (A) (A) (A) (A) (A) (A) (A) (A) (A)
                 (A) (A) (A) (A) (A) (A) (A) (A) (A) (A) (A) (A)
                 (A) (A) (A) (A) (A) (A) (A) (A) (A) (A) (A) (A)
                 (A) (A) (A) (A) (A) (A) (A) (A) (A) (A) (A) (A)
                 (A) (A) (A) (A) (A) (A) (A) (A) (A) (A) (A) (A)
                 (A) (A) (A) (A) (A) (A) (A) (A) (A) (A) (A) (A)
                 (A) (A) (A) (A) (A) (A) (A) (A) (A) (A) (A) (A)
                 (A) (A) (A) (A) (A) (A) (A) (A) (A) (A) (A) (A)
                 (A) (A) (A) (A) (A) (A) (A) (A) (A) (A) (A) (A)
                 (A) (A) (A) (A) (A) (A) (A) (A) (A) (A) (A) (A)
                 (A) (A) (A) (A) (A) (A) (A) (A) (A) (A) (A) (A)
                 (A) (A) (A) (A) (A) (A) (A) (A) (A) (A) (A) (A)
                 (A) (A) (A) (A) (A) (A) (A) (A) (A) (A) (A) (A)
                 (A) (A) (A) (A) (A) (A) (A) (A) (A) (A) (A) (A)
                 (A) (A) (A) (A) (A) (A) (A) (A) (A) (A) (A) (A)
                 (A) (A) (A) (A) (A) (A) (A) (A) (A) (A) (A) (A)
                 (A) (A) (A) (A) (A) (A) (A) (A) (A) (A) (A) (A)
                 (A) (A) (A) (A) (A) (A) (A) (A) (A) (A) (A) (A)
                 (A) (A) (A) (A) (A) (A) (A) (A) (A) (A) (A) (A)
 The electronic state is 1-A.
 Alpha  occ. eigenvalues --  -19.29152 -19.26578 -19.23220 -14.45722 -10.37977
 Alpha  occ. eigenvalues --  -10.36433 -10.35717 -10.34080 -10.32252 -10.31998
 Alpha  occ. eigenvalues --  -10.31856 -10.31076 -10.30912 -10.30787 -10.29728
 Alpha  occ. eigenvalues --  -10.26186  -1.17594  -1.16368  -1.11016  -1.06306
 Alpha  occ. eigenvalues --   -0.97185  -0.89098  -0.86528  -0.85970  -0.83302
 Alpha  occ. eigenvalues --   -0.81327  -0.78741  -0.75582  -0.70886  -0.68569
 Alpha  occ. eigenvalues --   -0.65701  -0.63397  -0.62419  -0.60213  -0.59199
 Alpha  occ. eigenvalues --   -0.57826  -0.56488  -0.55922  -0.54394  -0.53475
 Alpha  occ. eigenvalues --   -0.53052  -0.51681  -0.50214  -0.50138  -0.49480
 Alpha  occ. eigenvalues --   -0.48676  -0.47984  -0.47941  -0.47018  -0.45932
 Alpha  occ. eigenvalues --   -0.44747  -0.43053  -0.41378  -0.40378  -0.39102
 Alpha  occ. eigenvalues --   -0.34819  -0.34626  -0.29029  -0.25356
 Alpha virt. eigenvalues --   -0.01699   0.03501   0.03697   0.05162   0.05683
 Alpha virt. eigenvalues --    0.05772   0.06156   0.06518   0.06938   0.07540
 Alpha virt. eigenvalues --    0.07886   0.08073   0.08952   0.09109   0.09330
 Alpha virt. eigenvalues --    0.09985   0.10178   0.11088   0.11378   0.11927
 Alpha virt. eigenvalues --    0.12452   0.12762   0.13723   0.14623   0.14906
 Alpha virt. eigenvalues --    0.15142   0.15207   0.15368   0.16142   0.16240
 Alpha virt. eigenvalues --    0.16749   0.17023   0.17339   0.17520   0.17827
 Alpha virt. eigenvalues --    0.17983   0.18323   0.18716   0.19331   0.19447
 Alpha virt. eigenvalues --    0.19605   0.19922   0.20229   0.20443   0.20905
 Alpha virt. eigenvalues --    0.21894   0.22160   0.22604   0.22700   0.23093
 Alpha virt. eigenvalues --    0.23697   0.23721   0.24087   0.24251   0.24700
 Alpha virt. eigenvalues --    0.24927   0.25089   0.26377   0.27133   0.27210
 Alpha virt. eigenvalues --    0.27720   0.28004   0.28836   0.29290   0.29660
 Alpha virt. eigenvalues --    0.29918   0.30823   0.31124   0.31321   0.31863
 Alpha virt. eigenvalues --    0.32115   0.32681   0.33034   0.33454   0.33999
 Alpha virt. eigenvalues --    0.34114   0.34413   0.34847   0.35566   0.36474
 Alpha virt. eigenvalues --    0.36771   0.37010   0.37245   0.37368   0.38166
 Alpha virt. eigenvalues --    0.38247   0.38852   0.39339   0.39488   0.40605
 Alpha virt. eigenvalues --    0.40897   0.41317   0.42034   0.42275   0.42946
 Alpha virt. eigenvalues --    0.43271   0.44237   0.44597   0.44697   0.45677
 Alpha virt. eigenvalues --    0.46407   0.47243   0.48918   0.49239   0.50254
 Alpha virt. eigenvalues --    0.51089   0.51974   0.52556   0.53119   0.53933
 Alpha virt. eigenvalues --    0.54447   0.54745   0.56210   0.57827   0.58084
 Alpha virt. eigenvalues --    0.59674   0.60234   0.62154   0.63045   0.63321
 Alpha virt. eigenvalues --    0.64467   0.65845   0.66342   0.66928   0.68013
 Alpha virt. eigenvalues --    0.68411   0.68884   0.69409   0.69835   0.70997
 Alpha virt. eigenvalues --    0.71433   0.71757   0.72143   0.72460   0.72841
 Alpha virt. eigenvalues --    0.73572   0.74372   0.74968   0.76242   0.76741
 Alpha virt. eigenvalues --    0.77563   0.77995   0.78537   0.79547   0.80024
 Alpha virt. eigenvalues --    0.80225   0.80681   0.81593   0.82813   0.83385
 Alpha virt. eigenvalues --    0.84557   0.85704   0.86581   0.87821   0.90266
 Alpha virt. eigenvalues --    0.91757   0.93075   0.94897   0.96305   0.97378
 Alpha virt. eigenvalues --    0.97686   0.97810   0.98640   0.99179   1.00972
 Alpha virt. eigenvalues --    1.01531   1.03617   1.04194   1.05350   1.06300
 Alpha virt. eigenvalues --    1.08052   1.08754   1.09381   1.10431   1.10998
 Alpha virt. eigenvalues --    1.11583   1.13094   1.15415   1.15895   1.16601
 Alpha virt. eigenvalues --    1.18105   1.18878   1.19529   1.20694   1.21932
 Alpha virt. eigenvalues --    1.23392   1.24121   1.26109   1.29076   1.29593
 Alpha virt. eigenvalues --    1.30699   1.32149   1.34062   1.35681   1.37190
 Alpha virt. eigenvalues --    1.37964   1.38741   1.40606   1.41683   1.42700
 Alpha virt. eigenvalues --    1.46545   1.47413   1.50647   1.51077   1.52815
 Alpha virt. eigenvalues --    1.53199   1.53636   1.54284   1.55255   1.58002
 Alpha virt. eigenvalues --    1.58657   1.59695   1.60779   1.61659   1.62433
 Alpha virt. eigenvalues --    1.63743   1.64361   1.64703   1.65129   1.65566
 Alpha virt. eigenvalues --    1.67722   1.67827   1.68667   1.70516   1.71394
 Alpha virt. eigenvalues --    1.71754   1.72325   1.74936   1.75846   1.76705
 Alpha virt. eigenvalues --    1.78509   1.79161   1.79477   1.81797   1.82837
 Alpha virt. eigenvalues --    1.83689   1.83781   1.86550   1.87771   1.89333
 Alpha virt. eigenvalues --    1.90386   1.91788   1.92491   1.94509   1.96769
 Alpha virt. eigenvalues --    1.97718   1.98239   1.99840   2.00871   2.01958
 Alpha virt. eigenvalues --    2.04411   2.05046   2.06285   2.07388   2.08192
 Alpha virt. eigenvalues --    2.10225   2.11418   2.11990   2.14270   2.14447
 Alpha virt. eigenvalues --    2.16970   2.19149   2.20572   2.22467   2.23519
 Alpha virt. eigenvalues --    2.24281   2.25325   2.26518   2.27671   2.27762
 Alpha virt. eigenvalues --    2.30587   2.33042   2.34015   2.37017   2.38276
 Alpha virt. eigenvalues --    2.41787   2.44359   2.44826   2.48142   2.51027
 Alpha virt. eigenvalues --    2.52252   2.52440   2.55071   2.55557   2.57267
 Alpha virt. eigenvalues --    2.57714   2.58481   2.60262   2.61216   2.63457
 Alpha virt. eigenvalues --    2.64447   2.66319   2.67488   2.68870   2.70689
 Alpha virt. eigenvalues --    2.73296   2.73890   2.74784   2.76506   2.77100
 Alpha virt. eigenvalues --    2.78540   2.80202   2.80811   2.81937   2.82613
 Alpha virt. eigenvalues --    2.83552   2.84851   2.85561   2.86855   2.88823
 Alpha virt. eigenvalues --    2.91303   2.91485   2.93463   2.96108   2.98708
 Alpha virt. eigenvalues --    3.00477   3.01529   3.03226   3.04713   3.05509
 Alpha virt. eigenvalues --    3.09372   3.10115   3.11769   3.13863   3.15087
 Alpha virt. eigenvalues --    3.16745   3.17465   3.18294   3.20707   3.22618
 Alpha virt. eigenvalues --    3.24480   3.29087   3.29805   3.30215   3.32170
 Alpha virt. eigenvalues --    3.34330   3.36172   3.39030   3.44477   3.47955
 Alpha virt. eigenvalues --    3.49475   3.50311   3.57864   3.62927   3.67498
 Alpha virt. eigenvalues --    3.68472   3.71510   3.74446   3.75139   3.77186
 Alpha virt. eigenvalues --    3.79219   3.83747   3.84528   3.87820   3.92068
 Alpha virt. eigenvalues --    3.95533   3.96193   3.96644   4.03993   4.12662
 Alpha virt. eigenvalues --    4.17176   4.18304   4.19852   4.24156   4.27535
 Alpha virt. eigenvalues --    4.32327   4.37295   4.54893   4.94173   4.99868
 Alpha virt. eigenvalues --    5.13712   5.16215   5.18913   5.20552   5.44039
 Alpha virt. eigenvalues --    5.50937   5.58023   5.83459   5.85812   5.94092
 Alpha virt. eigenvalues --   23.70855  23.96968  24.01713  24.02630  24.06640
 Alpha virt. eigenvalues --   24.06963  24.08482  24.14014  24.16094  24.21638
 Alpha virt. eigenvalues --   24.27778  24.30003  35.72417  50.07815  50.10984
 Alpha virt. eigenvalues --   50.14099
          Condensed to atoms (all electrons):
               1          2          3          4          5          6
     1  C    5.184863   0.386937   0.387101  -0.069756   0.003280   0.236107
     2  H    0.386937   0.503494  -0.029052   0.008533  -0.007085  -0.053077
     3  H    0.387101  -0.029052   0.554093  -0.004940   0.001701  -0.070393
     4  C   -0.069756   0.008533  -0.004940   5.158651   0.408451   0.250218
     5  H    0.003280  -0.007085   0.001701   0.408451   0.586023  -0.062719
     6  N    0.236107  -0.053077  -0.070393   0.250218  -0.062719   6.920784
     7  H    0.437424  -0.011833  -0.050240   0.006490   0.001346  -0.048361
     8  H   -0.005181   0.004111  -0.002330   0.392320  -0.031484  -0.094507
     9  H    0.000147  -0.003887   0.002092   0.429162  -0.071073  -0.062964
    10  C   -0.355297   0.028451   0.028229  -0.043698  -0.029421   0.239579
    11  H    0.006854  -0.001299   0.001535  -0.032400   0.008194  -0.079537
    12  C    0.402287   0.018111  -0.008820  -0.220209   0.010294  -0.280146
    13  C   -0.076861  -0.013658   0.017138  -0.005850   0.012381  -0.054815
    14  H    0.025096  -0.001321  -0.004466  -0.012140   0.002853  -0.043082
    15  O   -0.006610  -0.000557   0.000472  -0.001752  -0.000034  -0.000571
    16  C   -0.223913  -0.017137   0.021812   0.041152   0.007281  -0.105160
    17  C   -0.044429  -0.003101   0.001881   0.005058   0.001395  -0.028945
    18  C    0.126423   0.008477  -0.020903   0.011704  -0.003080   0.098776
    19  O    0.000253   0.000014   0.000037  -0.000153  -0.000001  -0.000221
    20  C    0.003447   0.000097  -0.003034   0.002107   0.000253  -0.009209
    21  C    0.012832   0.001205   0.006195  -0.004531  -0.001898   0.047209
    22  H    0.011894   0.001349  -0.008291  -0.000365  -0.000966   0.013465
    23  H   -0.000612  -0.000054  -0.000048   0.000115  -0.000030   0.001262
    24  H   -0.000002   0.000001  -0.000033  -0.000036   0.000000  -0.000019
    25  C   -0.005975  -0.000371   0.004403   0.001974  -0.000092   0.000474
    26  H   -0.000124  -0.000009   0.000092   0.000090   0.000001  -0.000019
    27  O    0.000053   0.000004   0.000045  -0.000011   0.000007   0.000072
    28  C   -0.000308  -0.000024   0.000028   0.000032   0.000007   0.000025
    29  H   -0.000006  -0.000001   0.000003   0.000013   0.000000  -0.000006
    30  H   -0.000030  -0.000001   0.000020  -0.000007  -0.000001   0.000006
    31  H    0.000045   0.000004  -0.000039  -0.000039   0.000001   0.000007
               7          8          9         10         11         12
     1  C    0.437424  -0.005181   0.000147  -0.355297   0.006854   0.402287
     2  H   -0.011833   0.004111  -0.003887   0.028451  -0.001299   0.018111
     3  H   -0.050240  -0.002330   0.002092   0.028229   0.001535  -0.008820
     4  C    0.006490   0.392320   0.429162  -0.043698  -0.032400  -0.220209
     5  H    0.001346  -0.031484  -0.071073  -0.029421   0.008194   0.010294
     6  N   -0.048361  -0.094507  -0.062964   0.239579  -0.079537  -0.280146
     7  H    0.522133  -0.000903  -0.000669   0.000906  -0.004725   0.013513
     8  H   -0.000903   0.553079  -0.019208   0.099221  -0.008444  -0.012784
     9  H   -0.000669  -0.019208   0.575015  -0.005752  -0.002170  -0.005664
    10  C    0.000906   0.099221  -0.005752   9.033009   0.204014  -2.604861
    11  H   -0.004725  -0.008444  -0.002170   0.204014   0.549496   0.207712
    12  C    0.013513  -0.012784  -0.005664  -2.604861   0.207712  18.545463
    13  C   -0.049496  -0.008934  -0.006371  -0.935334   0.042963   1.583741
    14  H   -0.006736  -0.002997  -0.001636  -0.240456   0.025589   0.681687
    15  O   -0.000566   0.001728   0.000067   0.020685  -0.007069  -0.720837
    16  C    0.004223  -0.005468   0.002396   1.612554   0.033612  -8.000436
    17  C    0.002516  -0.002115   0.000689   0.239455   0.042231  -2.465721
    18  C   -0.002912   0.003582  -0.002027  -0.605213  -0.101013  -0.193101
    19  O   -0.000134   0.000071  -0.000008  -0.005137  -0.001142  -0.004091
    20  C   -0.000298  -0.001667   0.000142  -0.220661   0.018978  -1.532400
    21  C   -0.000805   0.005442  -0.000681   0.043435  -0.047958   1.274100
    22  H    0.000692   0.000697   0.000087  -0.106868  -0.007818   0.035562
    23  H    0.000246   0.000134   0.000025   0.002387  -0.002663   0.010521
    24  H    0.000002   0.000005  -0.000001  -0.003655  -0.000051  -0.004938
    25  C    0.000350   0.000535  -0.000024   0.278276   0.000814  -0.445322
    26  H    0.000004  -0.000007   0.000001   0.007263   0.000231  -0.016336
    27  O    0.000002  -0.000008  -0.000001   0.001551  -0.000003  -0.006522
    28  C    0.000027  -0.000007   0.000004   0.003151  -0.000025  -0.025354
    29  H    0.000001  -0.000004   0.000001   0.000263   0.000008  -0.001247
    30  H    0.000001   0.000005   0.000000   0.000317   0.000003   0.000929
    31  H    0.000000   0.000002  -0.000001  -0.002510  -0.000120   0.004288
              13         14         15         16         17         18
     1  C   -0.076861   0.025096  -0.006610  -0.223913  -0.044429   0.126423
     2  H   -0.013658  -0.001321  -0.000557  -0.017137  -0.003101   0.008477
     3  H    0.017138  -0.004466   0.000472   0.021812   0.001881  -0.020903
     4  C   -0.005850  -0.012140  -0.001752   0.041152   0.005058   0.011704
     5  H    0.012381   0.002853  -0.000034   0.007281   0.001395  -0.003080
     6  N   -0.054815  -0.043082  -0.000571  -0.105160  -0.028945   0.098776
     7  H   -0.049496  -0.006736  -0.000566   0.004223   0.002516  -0.002912
     8  H   -0.008934  -0.002997   0.001728  -0.005468  -0.002115   0.003582
     9  H   -0.006371  -0.001636   0.000067   0.002396   0.000689  -0.002027
    10  C   -0.935334  -0.240456   0.020685   1.612554   0.239455  -0.605213
    11  H    0.042963   0.025589  -0.007069   0.033612   0.042231  -0.101013
    12  C    1.583741   0.681687  -0.720837  -8.000436  -2.465721  -0.193101
    13  C   16.163200   0.040784   0.814059  -2.392004   0.742105  -4.395635
    14  H    0.040784   0.538446   0.005447  -0.049461   0.027084  -0.130013
    15  O    0.814059   0.005447   8.076184   0.022200   0.214314  -0.166572
    16  C   -2.392004  -0.049461   0.022200  23.615982   0.138309  -4.510769
    17  C    0.742105   0.027084   0.214314   0.138309  29.541944 -12.783505
    18  C   -4.395635  -0.130013  -0.166572  -4.510769 -12.783505  29.425089
    19  O   -0.109045   0.000190  -0.027937   0.219615   0.161059   0.122511
    20  C   -4.921765   0.020554  -0.089596  -1.432142 -10.957094   8.165411
    21  C    0.230111  -0.059771  -0.005577  -5.864530   0.210076  -0.974414
    22  H   -0.121826  -0.004601  -0.004912  -0.594030  -0.201454   1.279432
    23  H    0.017267  -0.002168   0.094373  -0.245766   0.162138   0.001871
    24  H   -0.039950   0.000163  -0.000066  -0.162301  -0.309009   0.150202
    25  C   -0.660066  -0.027445   0.014822   2.496772   1.423595  -7.773979
    26  H   -0.003796  -0.000751  -0.000055   0.258607   0.152414  -0.375981
    27  O    0.001562  -0.000569  -0.000039   0.109036   0.092720  -0.396891
    28  C   -0.039460  -0.000170   0.000083  -0.049586   0.128172  -0.101590
    29  H   -0.002071  -0.000021  -0.000001  -0.011780   0.007316  -0.075434
    30  H    0.003270  -0.000101   0.000003   0.030170   0.005471  -0.000136
    31  H   -0.004485   0.000292   0.000017  -0.103605  -0.036370   0.222705
              19         20         21         22         23         24
     1  C    0.000253   0.003447   0.012832   0.011894  -0.000612  -0.000002
     2  H    0.000014   0.000097   0.001205   0.001349  -0.000054   0.000001
     3  H    0.000037  -0.003034   0.006195  -0.008291  -0.000048  -0.000033
     4  C   -0.000153   0.002107  -0.004531  -0.000365   0.000115  -0.000036
     5  H   -0.000001   0.000253  -0.001898  -0.000966  -0.000030   0.000000
     6  N   -0.000221  -0.009209   0.047209   0.013465   0.001262  -0.000019
     7  H   -0.000134  -0.000298  -0.000805   0.000692   0.000246   0.000002
     8  H    0.000071  -0.001667   0.005442   0.000697   0.000134   0.000005
     9  H   -0.000008   0.000142  -0.000681   0.000087   0.000025  -0.000001
    10  C   -0.005137  -0.220661   0.043435  -0.106868   0.002387  -0.003655
    11  H   -0.001142   0.018978  -0.047958  -0.007818  -0.002663  -0.000051
    12  C   -0.004091  -1.532400   1.274100   0.035562   0.010521  -0.004938
    13  C   -0.109045  -4.921765   0.230111  -0.121826   0.017267  -0.039950
    14  H    0.000190   0.020554  -0.059771  -0.004601  -0.002168   0.000163
    15  O   -0.027937  -0.089596  -0.005577  -0.004912   0.094373  -0.000066
    16  C    0.219615  -1.432142  -5.864530  -0.594030  -0.245766  -0.162301
    17  C    0.161059 -10.957094   0.210076  -0.201454   0.162138  -0.309009
    18  C    0.122511   8.165411  -0.974414   1.279432   0.001871   0.150202
    19  O    8.037493  -0.353156  -0.013792  -0.000431   0.239880  -0.032980
    20  C   -0.353156  23.036507  -3.374105   0.253587  -0.003727   0.718152
    21  C   -0.013792  -3.374105  18.007269   0.084394   0.053505   0.103666
    22  H   -0.000431   0.253587   0.084394   0.527997   0.002319   0.005840
    23  H    0.239880  -0.003727   0.053505   0.002319   0.371956   0.002661
    24  H   -0.032980   0.718152   0.103666   0.005840   0.002661   0.481855
    25  C    0.014252  -2.623650  -2.639795  -0.377693  -0.015588  -0.128732
    26  H    0.003885  -0.322636  -0.569080  -0.018369  -0.001153  -0.041581
    27  O    0.000289  -0.026556  -0.144925  -0.042508   0.000090  -0.002489
    28  C   -0.000391  -0.260518   0.094683   0.002692   0.000408   0.001192
    29  H   -0.000011   0.036899  -0.076485   0.000646   0.000024  -0.000330
    30  H   -0.000025  -0.005970  -0.014218  -0.004351  -0.000013  -0.000477
    31  H   -0.000514  -0.055011   0.213100   0.006873   0.000281   0.009313
              25         26         27         28         29         30
     1  C   -0.005975  -0.000124   0.000053  -0.000308  -0.000006  -0.000030
     2  H   -0.000371  -0.000009   0.000004  -0.000024  -0.000001  -0.000001
     3  H    0.004403   0.000092   0.000045   0.000028   0.000003   0.000020
     4  C    0.001974   0.000090  -0.000011   0.000032   0.000013  -0.000007
     5  H   -0.000092   0.000001   0.000007   0.000007   0.000000  -0.000001
     6  N    0.000474  -0.000019   0.000072   0.000025  -0.000006   0.000006
     7  H    0.000350   0.000004   0.000002   0.000027   0.000001   0.000001
     8  H    0.000535  -0.000007  -0.000008  -0.000007  -0.000004   0.000005
     9  H   -0.000024   0.000001  -0.000001   0.000004   0.000001   0.000000
    10  C    0.278276   0.007263   0.001551   0.003151   0.000263   0.000317
    11  H    0.000814   0.000231  -0.000003  -0.000025   0.000008   0.000003
    12  C   -0.445322  -0.016336  -0.006522  -0.025354  -0.001247   0.000929
    13  C   -0.660066  -0.003796   0.001562  -0.039460  -0.002071   0.003270
    14  H   -0.027445  -0.000751  -0.000569  -0.000170  -0.000021  -0.000101
    15  O    0.014822  -0.000055  -0.000039   0.000083  -0.000001   0.000003
    16  C    2.496772   0.258607   0.109036  -0.049586  -0.011780   0.030170
    17  C    1.423595   0.152414   0.092720   0.128172   0.007316   0.005471
    18  C   -7.773979  -0.375981  -0.396891  -0.101590  -0.075434  -0.000136
    19  O    0.014252   0.003885   0.000289  -0.000391  -0.000011  -0.000025
    20  C   -2.623650  -0.322636  -0.026556  -0.260518   0.036899  -0.005970
    21  C   -2.639795  -0.569080  -0.144925   0.094683  -0.076485  -0.014218
    22  H   -0.377693  -0.018369  -0.042508   0.002692   0.000646  -0.004351
    23  H   -0.015588  -0.001153   0.000090   0.000408   0.000024  -0.000013
    24  H   -0.128732  -0.041581  -0.002489   0.001192  -0.000330  -0.000477
    25  C   14.990074   1.153022   0.309453  -0.143696   0.143857   0.008965
    26  H    1.153022   0.652505   0.000665  -0.004245  -0.000560   0.011507
    27  O    0.309453   0.000665   8.149448   0.170106  -0.024507  -0.079685
    28  C   -0.143696  -0.004245   0.170106   5.417647   0.325437   0.433791
    29  H    0.143857  -0.000560  -0.024507   0.325437   0.590817  -0.039391
    30  H    0.008965   0.011507  -0.079685   0.433791  -0.039391   0.511663
    31  H   -0.322874  -0.049351  -0.017082   0.422551  -0.045396  -0.058953
              31
     1  C    0.000045
     2  H    0.000004
     3  H   -0.000039
     4  C   -0.000039
     5  H    0.000001
     6  N    0.000007
     7  H    0.000000
     8  H    0.000002
     9  H   -0.000001
    10  C   -0.002510
    11  H   -0.000120
    12  C    0.004288
    13  C   -0.004485
    14  H    0.000292
    15  O    0.000017
    16  C   -0.103605
    17  C   -0.036370
    18  C    0.222705
    19  O   -0.000514
    20  C   -0.055011
    21  C    0.213100
    22  H    0.006873
    23  H    0.000281
    24  H    0.009313
    25  C   -0.322874
    26  H   -0.049351
    27  O   -0.017082
    28  C    0.422551
    29  H   -0.045396
    30  H   -0.058953
    31  H    0.650063
 Mulliken charges:
               1
     1  C   -0.435941
     2  H    0.181683
     3  H    0.175713
     4  C   -0.320184
     5  H    0.164413
     6  N    0.185768
     7  H    0.187805
     8  H    0.135117
     9  H    0.172312
    10  C   -0.683884
    11  H    0.154204
    12  C   -0.239419
    13  C    0.172840
    14  H    0.219720
    15  O   -0.231702
    16  C    1.154367
    17  C   -0.468199
    18  C   -1.003014
    19  O   -0.250380
    20  C   -0.062939
    21  C   -0.594658
    22  H    0.266953
    23  H    0.310359
    24  H    0.253596
    25  C    0.323664
    26  H    0.163764
    27  O   -0.093308
    28  C   -0.374660
    29  H    0.171965
    30  H    0.197237
    31  H    0.166807
 Sum of Mulliken charges =   0.00000
 Mulliken charges with hydrogens summed into heavy atoms:
               1
     1  C    0.109259
     4  C    0.151659
     6  N    0.185768
    10  C   -0.529680
    12  C   -0.019699
    13  C    0.172840
    15  O   -0.231702
    16  C    1.154367
    17  C   -0.468199
    18  C   -0.736060
    19  O    0.059979
    20  C    0.190657
    21  C   -0.594658
    25  C    0.487428
    27  O   -0.093308
    28  C    0.161350
 Electronic spatial extent (au):  <R**2>=           5154.6189
 Charge=              0.0000 electrons
 Dipole moment (field-independent basis, Debye):
    X=              0.0105    Y=             -4.2158    Z=              0.7922  Tot=              4.2896
 Quadrupole moment (field-independent basis, Debye-Ang):
   XX=            -62.5800   YY=           -107.4771   ZZ=            -93.2040
   XY=             -2.8145   XZ=             -0.3179   YZ=             -0.2288
 Traceless Quadrupole moment (field-independent basis, Debye-Ang):
   XX=             25.1737   YY=            -19.7234   ZZ=             -5.4503
   XY=             -2.8145   XZ=             -0.3179   YZ=             -0.2288
 Octapole moment (field-independent basis, Debye-Ang**2):
  XXX=            -18.3238  YYY=            -26.2927  ZZZ=              1.1126  XYY=             -3.6756
  XXY=            -61.7029  XXZ=             16.3165  XZZ=             18.0118  YZZ=             -2.1109
  YYZ=              1.4511  XYZ=              3.2972
 Hexadecapole moment (field-independent basis, Debye-Ang**3):
 XXXX=          -4088.5867 YYYY=          -1635.2395 ZZZZ=           -319.3228 XXXY=             37.3093
 XXXZ=            -44.8534 YYYX=             33.9853 YYYZ=             -2.5201 ZZZX=             14.1000
 ZZZY=             -1.3168 XXYY=          -1025.7587 XXZZ=           -854.6318 YYZZ=           -309.9775
 XXYZ=             -9.8626 YYXZ=             -0.3114 ZZXY=              6.0086
 N-N= 1.054215928552D+03 E-N=-3.850829542354D+03  KE= 7.436039176574D+02
 Calling FoFJK, ICntrl=  10005127 FMM=F ISym2X=0 I1Cent= 0 IOpClX= 0 NMat=1 NMatS=1 NMatT=0.
 ***** Axes restored to original set *****
 -------------------------------------------------------------------
 Center     Atomic                   Forces (Hartrees/Bohr)
 Number     Number              X              Y              Z
 -------------------------------------------------------------------
      1        6          -0.000017711   -0.000030080   -0.000059386
      2        1           0.000087809   -0.000039219    0.000017936
      3        1          -0.000003491    0.000098611    0.000065036
      4        6          -0.000310787   -0.000015246   -0.000025628
      5        1           0.000072429    0.000024183   -0.000067456
      6        7           0.000277437    0.000155565   -0.000386424
      7        1           0.000050414    0.000034385   -0.000065390
      8        1           0.000129141   -0.000014078   -0.000021966
      9        1           0.000076626    0.000023250    0.000043584
     10        6          -0.000262116   -0.000335598    0.000019502
     11        1          -0.000024518   -0.000138566    0.000144755
     12        6           0.000161777    0.000053491    0.000545615
     13        6           0.000058272    0.000415322   -0.000142927
     14        1           0.000031425   -0.000176401   -0.000162340
     15        8           0.000978945   -0.001251000   -0.000118139
     16        6           0.003261775   -0.000460100   -0.003895634
     17        6           0.001174945   -0.000192709   -0.001558505
     18        6           0.000511468   -0.003918403    0.006011787
     19        8          -0.002343906    0.003044294   -0.000546359
     20        6          -0.004000382    0.001843747    0.005401348
     21        6           0.001019275    0.000560790   -0.013852093
     22        1           0.001698376   -0.001555747   -0.001171112
     23        1           0.000382883   -0.000079262   -0.000688648
     24        1           0.000243543   -0.000533785    0.000087101
     25        6          -0.007829564    0.010333912   -0.004725088
     26        1          -0.013517123    0.013286963   -0.002126347
     27        8          -0.010128748   -0.026352184   -0.020341134
     28        6           0.044406015    0.044667444    0.003424887
     29        1          -0.031779671   -0.024006841    0.024338095
     30        1           0.008814281   -0.011241379   -0.005323723
     31        1           0.006781179   -0.004201359    0.015178652
 -------------------------------------------------------------------
 Cartesian Forces:  Max     0.044667444 RMS     0.009726782

 GradGradGradGradGradGradGradGradGradGradGradGradGradGradGradGradGradGrad
 Berny optimization.
 FormGI is forming the generalized inverse of G from B-inverse, IUseBI=4.
 Internal  Forces:  Max     0.114652082 RMS     0.015450935
 Search for a local minimum.
 Step number   1 out of a maximum of  150
 All quantities printed in internal units (Hartrees-Bohrs-Radians)
 Mixed Optimization -- RFO/linear search
 Second derivative matrix not updated -- first step.
 ITU=  0
     Eigenvalues ---    0.00945   0.00980   0.01163   0.01255   0.01403
     Eigenvalues ---    0.01671   0.01846   0.01882   0.01918   0.01923
     Eigenvalues ---    0.02025   0.02060   0.02101   0.02168   0.02172
     Eigenvalues ---    0.02201   0.02228   0.02241   0.02275   0.02296
     Eigenvalues ---    0.02448   0.02626   0.06278   0.07444   0.07541
     Eigenvalues ---    0.07575   0.07650   0.10534   0.15748   0.16000
     Eigenvalues ---    0.16000   0.16000   0.16000   0.16000   0.16000
     Eigenvalues ---    0.16000   0.16000   0.16000   0.16000   0.16000
     Eigenvalues ---    0.16000   0.16000   0.16000   0.22000   0.22060
     Eigenvalues ---    0.22370   0.23491   0.24589   0.24966   0.24998
     Eigenvalues ---    0.24998   0.24999   0.25000   0.25000   0.25000
     Eigenvalues ---    0.25000   0.34074   0.34134   0.34482   0.34483
     Eigenvalues ---    0.34510   0.34581   0.34829   0.34924   0.34986
     Eigenvalues ---    0.34987   0.35336   0.35478   0.35513   0.35557
     Eigenvalues ---    0.36587   0.37416   0.37753   0.39585   0.39926
     Eigenvalues ---    0.41448   0.43547   0.45003   0.45426   0.47204
     Eigenvalues ---    0.48041   0.48363   0.50058   0.52729   0.54114
     Eigenvalues ---    0.59653   0.66632
 RFO step:  Lambda=-1.03179050D-01 EMin= 9.45438010D-03
 Linear search not attempted -- first point.
 Maximum step size (   0.300) exceeded in Quadratic search.
    -- Step size scaled by   0.538
 Iteration  1 RMS(Cart)=  0.14066437 RMS(Int)=  0.01095011
 Iteration  2 RMS(Cart)=  0.04316127 RMS(Int)=  0.00090964
 Iteration  3 RMS(Cart)=  0.00141575 RMS(Int)=  0.00047233
 Iteration  4 RMS(Cart)=  0.00000320 RMS(Int)=  0.00047233
 Iteration  5 RMS(Cart)=  0.00000001 RMS(Int)=  0.00047233
 Variable       Old X    -DE/DX   Delta X   Delta X   Delta X     New X
                                 (Linear)    (Quad)   (Total)
    R1        2.05697  -0.00002   0.00000  -0.00003  -0.00003   2.05695
    R2        2.06477  -0.00003   0.00000  -0.00004  -0.00004   2.06473
    R3        2.75224   0.00003   0.00000   0.00003   0.00003   2.75227
    R4        2.06361   0.00003   0.00000   0.00004   0.00004   2.06365
    R5        2.06524  -0.00004   0.00000  -0.00004  -0.00004   2.06520
    R6        2.74726   0.00001   0.00000   0.00001   0.00001   2.74727
    R7        2.05696  -0.00001   0.00000  -0.00002  -0.00002   2.05694
    R8        2.06523  -0.00003   0.00000  -0.00003  -0.00003   2.06520
    R9        2.51216  -0.00065   0.00000  -0.00050  -0.00050   2.51166
   R10        2.04906  -0.00006   0.00000  -0.00007  -0.00007   2.04899
   R11        2.61895   0.00003   0.00000   0.00003   0.00003   2.61898
   R12        2.76473   0.00009   0.00000   0.00010   0.00010   2.76483
   R13        2.05799  -0.00019   0.00000  -0.00023  -0.00023   2.05776
   R14        2.46048  -0.00157   0.00000  -0.00110  -0.00110   2.45939
   R15        2.67000  -0.00146   0.00000  -0.00145  -0.00145   2.66855
   R16        2.69325  -0.00563   0.00000  -0.00652  -0.00653   2.68672
   R17        2.67078  -0.00129   0.00000  -0.00157  -0.00156   2.66922
   R18        2.55928   0.00375   0.00000   0.00314   0.00314   2.56241
   R19        2.61350  -0.00725   0.00000  -0.00696  -0.00699   2.60651
   R20        2.61807   0.00040   0.00000   0.00071   0.00073   2.61880
   R21        2.05133  -0.00056   0.00000  -0.00066  -0.00066   2.05067
   R22        1.83907  -0.00077   0.00000  -0.00066  -0.00066   1.83842
   R23        2.04850  -0.00029   0.00000  -0.00035  -0.00035   2.04815
   R24        2.63717   0.00361   0.00000   0.00371   0.00369   2.64086
   R25        2.62984   0.01826   0.00000   0.01776   0.01778   2.64762
   R26        2.59807   0.03106   0.00000   0.02768   0.02768   2.62576
   R27        2.04780  -0.01236   0.00000  -0.01450  -0.01450   2.03330
   R28        2.72121  -0.00969   0.00000  -0.01045  -0.01045   2.71076
   R29        2.07105   0.00057   0.00000   0.00069   0.00069   2.07173
   R30        2.05954   0.00344   0.00000   0.00410   0.00410   2.06363
   R31        2.07205  -0.01347   0.00000  -0.01633  -0.01633   2.05572
    A1        1.90125  -0.00008   0.00000  -0.00015  -0.00015   1.90110
    A2        1.90009   0.00008   0.00000   0.00018   0.00018   1.90027
    A3        1.90080   0.00005   0.00000   0.00013   0.00013   1.90092
    A4        1.93152   0.00013   0.00000   0.00025   0.00025   1.93178
    A5        1.90572  -0.00008   0.00000  -0.00020  -0.00020   1.90552
    A6        1.92405  -0.00010   0.00000  -0.00021  -0.00021   1.92384
    A7        1.92274  -0.00009   0.00000  -0.00020  -0.00020   1.92254
    A8        1.90228   0.00003   0.00000   0.00000   0.00000   1.90228
    A9        1.90145   0.00007   0.00000   0.00016   0.00016   1.90162
   A10        1.91732  -0.00011   0.00000  -0.00023  -0.00023   1.91709
   A11        1.91839  -0.00003   0.00000  -0.00004  -0.00004   1.91835
   A12        1.90136   0.00013   0.00000   0.00032   0.00032   1.90168
   A13        2.04901   0.00026   0.00000   0.00039   0.00039   2.04940
   A14        2.11682  -0.00023   0.00000  -0.00036  -0.00036   2.11646
   A15        2.11730  -0.00002   0.00000  -0.00003  -0.00003   2.11727
   A16        2.02251   0.00008   0.00000   0.00006   0.00006   2.02257
   A17        2.20101  -0.00050   0.00000  -0.00083  -0.00083   2.20019
   A18        2.05963   0.00042   0.00000   0.00076   0.00076   2.06039
   A19        2.08386   0.00009   0.00000   0.00018   0.00018   2.08405
   A20        2.09598   0.00003   0.00000   0.00012   0.00012   2.09610
   A21        2.07982  -0.00007   0.00000  -0.00010  -0.00010   2.07972
   A22        1.79435   0.00076   0.00000   0.00117   0.00117   1.79552
   A23        2.24242  -0.00084   0.00000  -0.00128  -0.00128   2.24113
   A24        2.24442   0.00008   0.00000   0.00012   0.00012   2.24454
   A25        2.09851  -0.00023   0.00000   0.00063   0.00063   2.09914
   A26        2.13235  -0.00382   0.00000  -0.00484  -0.00484   2.12751
   A27        2.05227   0.00404   0.00000   0.00421   0.00420   2.05647
   A28        2.11237   0.00319   0.00000   0.00587   0.00590   2.11827
   A29        2.10065  -0.00555   0.00000  -0.01047  -0.01052   2.09013
   A30        2.07016   0.00235   0.00000   0.00460   0.00462   2.07478
   A31        2.11904   0.00986   0.00000   0.01607   0.01611   2.13516
   A32        2.07390  -0.00235   0.00000  -0.00276  -0.00278   2.07111
   A33        2.09024  -0.00751   0.00000  -0.01332  -0.01334   2.07690
   A34        1.89482   0.00032   0.00000   0.00066   0.00066   1.89548
   A35        2.06230  -0.00262   0.00000  -0.00388  -0.00386   2.05844
   A36        2.10793   0.00628   0.00000   0.00988   0.00984   2.11776
   A37        2.11296  -0.00366   0.00000  -0.00600  -0.00598   2.10698
   A38        2.09413  -0.01675   0.00000  -0.02436  -0.02431   2.06981
   A39        2.09051  -0.05923   0.00000  -0.09082  -0.09085   1.99966
   A40        2.09854   0.07598   0.00000   0.11519   0.11517   2.21371
   A41        2.09232   0.00211   0.00000   0.00467   0.00467   2.09699
   A42        2.08834  -0.01571   0.00000  -0.03231  -0.03231   2.05603
   A43        2.10251   0.01361   0.00000   0.02766   0.02766   2.13017
   A44        2.00551   0.11465   0.00000   0.17470   0.17470   2.18020
   A45        2.38997  -0.07257   0.00000  -0.15077  -0.15100   2.23898
   A46        1.73178   0.02989   0.00000   0.05759   0.05503   1.78681
   A47        1.93409   0.02256   0.00000   0.05197   0.05260   1.98669
   A48        1.90131   0.00600   0.00000   0.00403   0.00174   1.90306
   A49        1.64228   0.02897   0.00000   0.06374   0.06542   1.70770
   A50        1.79812  -0.00171   0.00000   0.00479   0.00300   1.80111
    D1       -0.08592   0.00003   0.00000   0.00012   0.00012  -0.08580
    D2        3.06739   0.00002   0.00000   0.00010   0.00010   3.06749
    D3        2.00317   0.00005   0.00000   0.00020   0.00020   2.00337
    D4       -1.12670   0.00005   0.00000   0.00017   0.00017  -1.12653
    D5       -2.16993  -0.00002   0.00000  -0.00002  -0.00002  -2.16995
    D6        0.98338  -0.00002   0.00000  -0.00005  -0.00005   0.98333
    D7       -1.03667  -0.00005   0.00000  -0.00017  -0.00017  -1.03684
    D8        2.09320  -0.00004   0.00000  -0.00015  -0.00015   2.09305
    D9       -3.13247   0.00004   0.00000   0.00010   0.00010  -3.13237
   D10       -0.00260   0.00005   0.00000   0.00013   0.00013  -0.00247
   D11        1.05878  -0.00003   0.00000  -0.00012  -0.00012   1.05866
   D12       -2.09454  -0.00003   0.00000  -0.00009  -0.00009  -2.09463
   D13       -3.11708   0.00000   0.00000  -0.00001  -0.00001  -3.11710
   D14        0.03316   0.00008   0.00000   0.00032   0.00032   0.03348
   D15        0.03669  -0.00001   0.00000  -0.00004  -0.00004   0.03665
   D16       -3.09625   0.00007   0.00000   0.00028   0.00028  -3.09596
   D17       -3.01780  -0.00011   0.00000  -0.00050  -0.00050  -3.01830
   D18       -0.10939   0.00011   0.00000   0.00050   0.00050  -0.10889
   D19        0.13261  -0.00003   0.00000  -0.00016  -0.00016   0.13245
   D20        3.04102   0.00019   0.00000   0.00084   0.00084   3.04186
   D21        1.46932   0.00024   0.00000   0.00105   0.00105   1.47037
[...]
 Alpha virt. eigenvalues --    2.28130   2.32077   2.34006   2.37315   2.38754
 Alpha virt. eigenvalues --    2.41817   2.43600   2.45545   2.50266   2.51064
 Alpha virt. eigenvalues --    2.52305   2.54625   2.54759   2.55416   2.56772
 Alpha virt. eigenvalues --    2.57621   2.58495   2.60628   2.61326   2.63499
 Alpha virt. eigenvalues --    2.64731   2.66175   2.67548   2.69510   2.70609
 Alpha virt. eigenvalues --    2.71910   2.73511   2.74929   2.75423   2.76897
 Alpha virt. eigenvalues --    2.79097   2.79356   2.80358   2.81124   2.82639
 Alpha virt. eigenvalues --    2.83037   2.84671   2.85611   2.86650   2.88816
 Alpha virt. eigenvalues --    2.90343   2.91435   2.93438   2.95656   2.97994
 Alpha virt. eigenvalues --    2.99828   3.01126   3.02983   3.04350   3.05684
 Alpha virt. eigenvalues --    3.09329   3.10634   3.13902   3.14898   3.15187
 Alpha virt. eigenvalues --    3.16878   3.17722   3.18405   3.20769   3.22260
 Alpha virt. eigenvalues --    3.23688   3.28820   3.30560   3.30994   3.33342
 Alpha virt. eigenvalues --    3.33782   3.36480   3.39217   3.42605   3.47099
 Alpha virt. eigenvalues --    3.49538   3.50647   3.57919   3.60767   3.67777
 Alpha virt. eigenvalues --    3.68602   3.71051   3.75091   3.75638   3.79150
 Alpha virt. eigenvalues --    3.83685   3.84594   3.86400   3.87816   3.92328
 Alpha virt. eigenvalues --    3.92919   3.95890   3.96552   4.04158   4.12674
 Alpha virt. eigenvalues --    4.16577   4.18659   4.21107   4.24850   4.27606
 Alpha virt. eigenvalues --    4.32947   4.37167   4.54830   4.94173   4.99923
 Alpha virt. eigenvalues --    5.13664   5.14854   5.19012   5.20387   5.44018
 Alpha virt. eigenvalues --    5.53300   5.58192   5.83824   5.87551   5.94697
 Alpha virt. eigenvalues --   23.71692  23.97182  24.01864  24.02731  24.05588
 Alpha virt. eigenvalues --   24.07016  24.08527  24.13956  24.16725  24.21989
 Alpha virt. eigenvalues --   24.28042  24.29988  35.72438  50.09715  50.11416
 Alpha virt. eigenvalues --   50.14299
          Condensed to atoms (all electrons):
               1          2          3          4          5          6
     1  C    5.198616   0.388406   0.382635  -0.069919   0.001948   0.239007
     2  H    0.388406   0.502998  -0.029928   0.007842  -0.007105  -0.052435
     3  H    0.382635  -0.029928   0.556719  -0.003983   0.001547  -0.070019
     4  C   -0.069919   0.007842  -0.003983   5.161573   0.409440   0.254293
     5  H    0.001948  -0.007105   0.001547   0.409440   0.586383  -0.063166
     6  N    0.239007  -0.052435  -0.070019   0.254293  -0.063166   6.927492
     7  H    0.439426  -0.011422  -0.050103   0.005441   0.001399  -0.049304
     8  H   -0.004469   0.004228  -0.002468   0.391074  -0.030979  -0.095151
     9  H    0.000671  -0.004279   0.002258   0.428196  -0.071364  -0.063255
    10  C   -0.370458   0.025912   0.030772  -0.064143  -0.027995   0.234616
    11  H    0.004856  -0.001441   0.001741  -0.031968   0.007792  -0.079778
    12  C    0.415605   0.016733  -0.015888  -0.215919   0.009729  -0.289419
    13  C   -0.110885  -0.012309   0.022912  -0.000247   0.012594  -0.059960
    14  H    0.024067  -0.001258  -0.004922  -0.011722   0.002806  -0.043884
    15  O   -0.006028  -0.000534   0.000482  -0.001608  -0.000043  -0.000239
    16  C   -0.226772  -0.016159   0.028298   0.038712   0.005072  -0.084920
    17  C   -0.047916  -0.002982   0.003652   0.004439   0.000812  -0.022187
    18  C    0.147759   0.009586  -0.024025   0.018279  -0.001334   0.087714
    19  O    0.000354   0.000018   0.000017  -0.000153   0.000000  -0.000221
    20  C    0.003601   0.000177  -0.002693   0.002928   0.000271  -0.008472
    21  C    0.015599   0.000949   0.003530  -0.004385  -0.001049   0.037681
    22  H    0.016031   0.001720  -0.008927   0.000257  -0.000767   0.013577
    23  H   -0.000612  -0.000051  -0.000024   0.000143  -0.000019   0.001074
    24  H   -0.000020   0.000000  -0.000021  -0.000023   0.000000  -0.000012
    25  C   -0.005350  -0.000406   0.003680   0.001236  -0.000045   0.000056
    26  H   -0.000042  -0.000004   0.000042   0.000044   0.000003  -0.000008
    27  O    0.000118   0.000010   0.000040  -0.000039   0.000006   0.000094
    28  C   -0.000223  -0.000015   0.000009   0.000000   0.000003   0.000063
    29  H   -0.000003   0.000000   0.000004   0.000004  -0.000007   0.000028
    30  H   -0.000023  -0.000002   0.000005   0.000004   0.000002  -0.000025
    31  H   -0.000019  -0.000001   0.000003  -0.000011   0.000002  -0.000011
               7          8          9         10         11         12
     1  C    0.439426  -0.004469   0.000671  -0.370458   0.004856   0.415605
     2  H   -0.011422   0.004228  -0.004279   0.025912  -0.001441   0.016733
     3  H   -0.050103  -0.002468   0.002258   0.030772   0.001741  -0.015888
     4  C    0.005441   0.391074   0.428196  -0.064143  -0.031968  -0.215919
     5  H    0.001399  -0.030979  -0.071364  -0.027995   0.007792   0.009729
     6  N   -0.049304  -0.095151  -0.063255   0.234616  -0.079778  -0.289419
     7  H    0.520641  -0.000918  -0.000555  -0.001245  -0.004717   0.024751
     8  H   -0.000918   0.553185  -0.019534   0.098435  -0.008735  -0.009339
     9  H   -0.000555  -0.019534   0.575883  -0.005448  -0.001746  -0.005832
    10  C   -0.001245   0.098435  -0.005448   8.811747   0.203117  -2.538428
    11  H   -0.004717  -0.008735  -0.001746   0.203117   0.549254   0.195550
    12  C    0.024751  -0.009339  -0.005832  -2.538428   0.195550  17.955844
    13  C   -0.054547  -0.010579  -0.005671  -0.878097   0.058068   0.721676
    14  H   -0.006336  -0.002684  -0.001701  -0.225217   0.025235   0.662099
    15  O   -0.000730   0.001605   0.000064   0.005091  -0.007524  -0.633511
    16  C    0.001221  -0.003505   0.002635   1.566088   0.032545  -6.722361
    17  C    0.001579  -0.000675   0.000748   0.288194   0.039071  -2.424489
    18  C   -0.002975   0.001202  -0.002819  -0.505573  -0.097852  -0.019035
    19  O   -0.000142   0.000068  -0.000009  -0.007731  -0.001256   0.005928
    20  C   -0.000572  -0.001671   0.000124  -0.189741   0.019685  -1.507915
    21  C   -0.000265   0.004645  -0.000772   0.104970  -0.043921   0.929447
    22  H    0.000476   0.000656  -0.000046  -0.089692  -0.007645   0.039760
    23  H    0.000252   0.000122   0.000015   0.009189  -0.002334   0.006847
    24  H    0.000001   0.000007  -0.000001  -0.002122  -0.000022  -0.007486
    25  C    0.000331   0.000510  -0.000022   0.204636  -0.001522  -0.354901
    26  H    0.000003  -0.000012   0.000000   0.002854   0.000083  -0.005445
    27  O   -0.000004   0.000008  -0.000002  -0.000422  -0.000238  -0.010041
    28  C    0.000019  -0.000013   0.000003  -0.000113   0.000034  -0.002705
    29  H   -0.000001   0.000011   0.000000  -0.000209  -0.000076  -0.000069
    30  H    0.000003  -0.000007   0.000001  -0.000012   0.000059  -0.000089
    31  H    0.000002   0.000003   0.000000   0.000390  -0.000016  -0.001664
              13         14         15         16         17         18
     1  C   -0.110885   0.024067  -0.006028  -0.226772  -0.047916   0.147759
     2  H   -0.012309  -0.001258  -0.000534  -0.016159  -0.002982   0.009586
     3  H    0.022912  -0.004922   0.000482   0.028298   0.003652  -0.024025
     4  C   -0.000247  -0.011722  -0.001608   0.038712   0.004439   0.018279
     5  H    0.012594   0.002806  -0.000043   0.005072   0.000812  -0.001334
     6  N   -0.059960  -0.043884  -0.000239  -0.084920  -0.022187   0.087714
     7  H   -0.054547  -0.006336  -0.000730   0.001221   0.001579  -0.002975
     8  H   -0.010579  -0.002684   0.001605  -0.003505  -0.000675   0.001202
     9  H   -0.005671  -0.001701   0.000064   0.002635   0.000748  -0.002819
    10  C   -0.878097  -0.225217   0.005091   1.566088   0.288194  -0.505573
    11  H    0.058068   0.025235  -0.007524   0.032545   0.039071  -0.097852
    12  C    0.721676   0.662099  -0.633511  -6.722361  -2.424489  -0.019035
    13  C   15.237314   0.041531   0.818206  -1.454024   1.267808  -4.309660
    14  H    0.041531   0.533268   0.006453  -0.062522   0.004615  -0.104605
    15  O    0.818206   0.006453   8.065828  -0.008804   0.141445  -0.111292
    16  C   -1.454024  -0.062522  -0.008804  20.258941  -0.364618  -4.149420
    17  C    1.267808   0.004615   0.141445  -0.364618  29.413816 -11.892617
    18  C   -4.309660  -0.104605  -0.111292  -4.149420 -11.892617  24.553048
    19  O   -0.106136   0.000747  -0.026320   0.210118   0.158520   0.140190
    20  C   -4.121987   0.020327  -0.114458  -1.285510 -10.740715   6.906942
    21  C   -0.445394  -0.051103   0.005472  -4.128001  -0.170649   0.461057
    22  H   -0.145082  -0.003703  -0.003224  -0.529235  -0.217695   1.160875
    23  H    0.030377  -0.002321   0.091772  -0.235236   0.180376  -0.023602
    24  H   -0.029275   0.000006  -0.000119  -0.111673  -0.246318   0.091859
    25  C   -0.718198  -0.020903   0.010794   1.973732   0.873668  -4.838133
    26  H    0.003830  -0.000223   0.000028   0.144272   0.097268  -0.163464
    27  O   -0.006807  -0.000574  -0.000054   0.052992   0.063618  -0.149093
    28  C   -0.010812   0.000110   0.000117  -0.046911   0.095381  -0.045492
    29  H   -0.001370  -0.000073  -0.000006  -0.023344   0.009073  -0.008402
    30  H   -0.000290   0.000065   0.000017   0.006103  -0.007206  -0.007694
    31  H   -0.001573  -0.000034  -0.000004   0.001694   0.003346   0.054588
              19         20         21         22         23         24
     1  C    0.000354   0.003601   0.015599   0.016031  -0.000612  -0.000020
     2  H    0.000018   0.000177   0.000949   0.001720  -0.000051   0.000000
     3  H    0.000017  -0.002693   0.003530  -0.008927  -0.000024  -0.000021
     4  C   -0.000153   0.002928  -0.004385   0.000257   0.000143  -0.000023
     5  H    0.000000   0.000271  -0.001049  -0.000767  -0.000019   0.000000
     6  N   -0.000221  -0.008472   0.037681   0.013577   0.001074  -0.000012
     7  H   -0.000142  -0.000572  -0.000265   0.000476   0.000252   0.000001
     8  H    0.000068  -0.001671   0.004645   0.000656   0.000122   0.000007
     9  H   -0.000009   0.000124  -0.000772  -0.000046   0.000015  -0.000001
    10  C   -0.007731  -0.189741   0.104970  -0.089692   0.009189  -0.002122
    11  H   -0.001256   0.019685  -0.043921  -0.007645  -0.002334  -0.000022
    12  C    0.005928  -1.507915   0.929447   0.039760   0.006847  -0.007486
    13  C   -0.106136  -4.121987  -0.445394  -0.145082   0.030377  -0.029275
    14  H    0.000747   0.020327  -0.051103  -0.003703  -0.002321   0.000006
    15  O   -0.026320  -0.114458   0.005472  -0.003224   0.091772  -0.000119
    16  C    0.210118  -1.285510  -4.128001  -0.529235  -0.235236  -0.111673
    17  C    0.158520 -10.740715  -0.170649  -0.217695   0.180376  -0.246318
    18  C    0.140190   6.906942   0.461057   1.160875  -0.023602   0.091859
    19  O    8.038075  -0.373194  -0.007992   0.000894   0.239208  -0.030187
    20  C   -0.373194  22.284387  -3.170308   0.191205  -0.003499   0.647838
    21  C   -0.007992  -3.170308  14.589063   0.110122   0.033878   0.048596
    22  H    0.000894   0.191205   0.110122   0.515870   0.000776   0.003867
    23  H    0.239208  -0.003499   0.033878   0.000776   0.373814   0.002099
    24  H   -0.030187   0.647838   0.048596   0.003867   0.002099   0.467741
    25  C    0.009682  -1.960917  -1.662848  -0.278471  -0.008769  -0.068244
    26  H    0.001784  -0.225221  -0.243168  -0.010070  -0.000430  -0.018936
    27  O    0.000377   0.014448  -0.107893  -0.040456   0.000350  -0.000799
    28  C   -0.001121  -0.253393   0.245552   0.005004   0.000167   0.004046
    29  H    0.000048   0.014141  -0.020548   0.001281   0.000063   0.000565
    30  H   -0.000040  -0.007660   0.051008  -0.000467  -0.000018   0.000182
    31  H    0.000053   0.005777  -0.061789  -0.002001   0.000030   0.000602
              25         26         27         28         29         30
     1  C   -0.005350  -0.000042   0.000118  -0.000223  -0.000003  -0.000023
     2  H   -0.000406  -0.000004   0.000010  -0.000015   0.000000  -0.000002
     3  H    0.003680   0.000042   0.000040   0.000009   0.000004   0.000005
     4  C    0.001236   0.000044  -0.000039   0.000000   0.000004   0.000004
     5  H   -0.000045   0.000003   0.000006   0.000003  -0.000007   0.000002
     6  N    0.000056  -0.000008   0.000094   0.000063   0.000028  -0.000025
     7  H    0.000331   0.000003  -0.000004   0.000019  -0.000001   0.000003
     8  H    0.000510  -0.000012   0.000008  -0.000013   0.000011  -0.000007
     9  H   -0.000022   0.000000  -0.000002   0.000003   0.000000   0.000001
    10  C    0.204636   0.002854  -0.000422  -0.000113  -0.000209  -0.000012
    11  H   -0.001522   0.000083  -0.000238   0.000034  -0.000076   0.000059
    12  C   -0.354901  -0.005445  -0.010041  -0.002705  -0.000069  -0.000089
    13  C   -0.718198   0.003830  -0.006807  -0.010812  -0.001370  -0.000290
    14  H   -0.020903  -0.000223  -0.000574   0.000110  -0.000073   0.000065
    15  O    0.010794   0.000028  -0.000054   0.000117  -0.000006   0.000017
    16  C    1.973732   0.144272   0.052992  -0.046911  -0.023344   0.006103
    17  C    0.873668   0.097268   0.063618   0.095381   0.009073  -0.007206
    18  C   -4.838133  -0.163464  -0.149093  -0.045492  -0.008402  -0.007694
    19  O    0.009682   0.001784   0.000377  -0.001121   0.000048  -0.000040
    20  C   -1.960917  -0.225221   0.014448  -0.253393   0.014141  -0.007660
    21  C   -1.662848  -0.243168  -0.107893   0.245552  -0.020548   0.051008
    22  H   -0.278471  -0.010070  -0.040456   0.005004   0.001281  -0.000467
    23  H   -0.008769  -0.000430   0.000350   0.000167   0.000063  -0.000018
    24  H   -0.068244  -0.018936  -0.000799   0.004046   0.000565   0.000182
    25  C   11.818502   0.728302   0.105422  -0.249207   0.009305   0.010647
    26  H    0.728302   0.513512  -0.013748  -0.008450  -0.008561   0.003483
    27  O    0.105422  -0.013748   8.176179   0.190133  -0.034662  -0.069326
    28  C   -0.249207  -0.008450   0.190133   5.238066   0.403516   0.396487
    29  H    0.009305  -0.008561  -0.034662   0.403516   0.586839  -0.022147
    30  H    0.010647   0.003483  -0.069326   0.396487  -0.022147   0.460654
    31  H   -0.022460  -0.009009  -0.033959   0.407485  -0.068420  -0.019846
              31
     1  C   -0.000019
     2  H   -0.000001
     3  H    0.000003
     4  C   -0.000011
     5  H    0.000002
     6  N   -0.000011
     7  H    0.000002
     8  H    0.000003
     9  H    0.000000
    10  C    0.000390
    11  H   -0.000016
    12  C   -0.001664
    13  C   -0.001573
    14  H   -0.000034
    15  O   -0.000004
    16  C    0.001694
    17  C    0.003346
    18  C    0.054588
    19  O    0.000053
    20  C    0.005777
    21  C   -0.061789
    22  H   -0.002001
    23  H    0.000030
    24  H    0.000602
    25  C   -0.022460
    26  H   -0.009009
    27  O   -0.033959
    28  C    0.407485
    29  H   -0.068420
    30  H   -0.019846
    31  H    0.581597
 Mulliken charges:
               1
     1  C   -0.435959
     2  H    0.181750
     3  H    0.174653
     4  C   -0.319787
     5  H    0.164063
     6  N    0.186769
     7  H    0.188291
     8  H    0.134979
     9  H    0.172459
    10  C   -0.679366
    11  H    0.153701
    12  C   -0.219431
    13  C    0.268588
    14  H    0.222459
    15  O   -0.232874
    16  C    1.130593
    17  C   -0.509361
    18  C   -1.176012
    19  O   -0.251576
    20  C   -0.143928
    21  C   -0.521485
    22  H    0.275108
    23  H    0.306360
    24  H    0.247850
    25  C    0.439894
    26  H    0.211285
    27  O   -0.135679
    28  C   -0.367740
    29  H    0.163018
    30  H    0.206134
    31  H    0.165246
 Sum of Mulliken charges =   0.00000
 Mulliken charges with hydrogens summed into heavy atoms:
               1
     1  C    0.108735
     4  C    0.151714
     6  N    0.186769
    10  C   -0.525665
    12  C    0.003028
    13  C    0.268588
    15  O   -0.232874
    16  C    1.130593
    17  C   -0.509361
    18  C   -0.900904
    19  O    0.054784
    20  C    0.103922
    21  C   -0.521485
    25  C    0.651178
    27  O   -0.135679
    28  C    0.166657
 Electronic spatial extent (au):  <R**2>=           5082.0893
 Charge=              0.0000 electrons
 Dipole moment (field-independent basis, Debye):
    X=              0.1705    Y=             -4.8214    Z=              0.7482  Tot=              4.8821
 Quadrupole moment (field-independent basis, Debye-Ang):
   XX=            -65.8618   YY=           -104.7761   ZZ=            -93.2920
   XY=             -1.3572   XZ=              0.1905   YZ=             -0.3975
 Traceless Quadrupole moment (field-independent basis, Debye-Ang):
   XX=             22.1148   YY=            -16.7995   ZZ=             -5.3153
   XY=             -1.3572   XZ=              0.1905   YZ=             -0.3975
 Octapole moment (field-independent basis, Debye-Ang**2):
  XXX=             -0.1374  YYY=            -44.2871  ZZZ=              1.8900  XYY=            -12.3850
  XXY=            -61.2795  XXZ=             11.0711  XZZ=             18.1556  YZZ=             -1.4665
  YYZ=              1.2481  XYZ=              1.4725
 Hexadecapole moment (field-independent basis, Debye-Ang**3):
 XXXX=          -4077.9218 YYYY=          -1642.1990 ZZZZ=           -322.4901 XXXY=              9.0653
 XXXZ=            -17.1827 YYYX=             87.9298 YYYZ=             -0.9364 ZZZX=             11.2515
 ZZZY=             -3.7570 XXYY=           -993.5175 XXZZ=           -829.1619 YYZZ=           -327.5654
 XXYZ=              1.4371 YYXZ=              4.8638 ZZXY=              2.1419
 N-N= 1.055525227304D+03 E-N=-3.853586434283D+03  KE= 7.436109629061D+02
 1\1\GINC-NXV27\FOpt\RwB97XD TD-FC\6-311++G(d,p)\C12H15N1O3\CA12053\27-
 Jul-2017\0\\# wb97xd 6-311++g** opt td=(nstates=1,root=1)\\Geom Opt s1
 \\0,1\C,-12.1145866578,1.1975257166,13.2233984856\H,-12.6804786921,0.7
 82993504,14.055677482\H,-11.0678735768,0.9013433891,13.324903985\C,-13
 .7495726958,-0.2786526389,12.0682044883\H,-13.408789936,-1.1641341742,
 12.6103979602\N,-12.674138342,0.6953785726,11.9760030477\H,-12.1833118
 662,2.2869794818,13.2558315703\H,-14.0656875455,-0.5749255241,11.06966
 43724\H,-14.6015357855,0.1558104675,12.5970218707\C,-12.2142238341,1.1
 069544457,10.7989967457\H,-12.7132019333,0.6990695684,9.9271245697\C,-
 11.1601038718,1.9838513189,10.5971384948\C,-10.8659189813,2.4518269967
 ,9.2422140926\H,-10.6886575472,2.4775620953,11.4450606255\O,-11.669469
 1371,3.4633597203,9.0980161019\C,-9.9076187308,1.9481120275,8.33528025
 49\C,-9.7454754344,2.5504383187,7.052563162\C,-9.1000238506,0.83749504
 79,8.6526389646\O,-10.4861318864,3.6268158796,6.6813479619\C,-8.824084
 4123,2.0357357859,6.1686506656\C,-8.1774521524,0.3330640193,7.74568885
 71\H,-9.1835775195,0.3568807493,9.6206469535\H,-11.0778569179,3.860914
 5527,7.416340162\H,-8.7207406908,2.5110782117,5.2000903488\C,-8.032009
 8242,0.9264165867,6.4958920869\H,-7.3210566531,0.5575079203,5.76951957
 8\O,-7.4579565866,-0.7506871819,8.176305793\C,-6.5051311738,-1.2951180
 852,7.297879925\H,-6.9684008494,-1.6601680918,6.3729842155\H,-6.050329
 221,-2.1340093915,7.8240921522\H,-5.72543222,-0.5667773118,7.043277387
 4\\Version=ES64L-G09RevD.01\State=1-A\HF=-746.6223722\RMSD=5.043e-09\R
 MSF=9.143e-06\Dipole=-1.6734641,-2.2527578,3.5174776\PG=C01 [X(C12H15N
 1O3)]\\@


 YE HAVE SOWN MUCH, AND BRING IN LITTLE.
 YE EAT, BUT YE HAVE NOT ENOUGH.
 YE DRINK, BUT YE ARE NOT FILLED WITH DRINK.
 YE CLOTHE YOU, BUT THERE IS NONE WARM.
 AND HE THAT EARNETH WAGES EARNETH WAGES TO PUT
 IT INTO A BAG WITH HOLES.
                                     HAGGAI I,6
 Job cpu time:       1 days 12 hours  1 minutes 55.8 seconds.
 File lengths (MBytes):  RWF=    206 Int=      0 D2E=      0 Chk=     29 Scr=      1
 Normal termination of Gaussian 09 at Thu Jul 27 00:56:59 2017.
