 Entering Gaussian System, Link 0=g09
 Input=2hc_1_rel-mega_dimer_0_mon-0.com
 Output=2hc_1_rel-mega_dimer_0_mon-0.out
 Initial command:
 /share/apps/gaussian/g09_D01/g09/l1.exe "/tmp/162431.1.all.q/Gau-11955.inp" -scrdir="/tmp/162431.1.all.q/"
 Entering Link 1 = /share/apps/gaussian/g09_D01/g09/l1.exe PID=     11956.
  
 Copyright (c) 1988,1990,1992,1993,1995,1998,2003,2009,2013,
            Gaussian, Inc.  All Rights Reserved.
  
 This is part of the Gaussian(R) 09 program.  It is based on
 the Gaussian(R) 03 system (copyright 2003, Gaussian, Inc.),
 the Gaussian(R) 98 system (copyright 1998, Gaussian, Inc.),
 the Gaussian(R) 94 system (copyright 1995, Gaussian, Inc.),
 the Gaussian 92(TM) system (copyright 1992, Gaussian, Inc.),
 the Gaussian 90(TM) system (copyright 1990, Gaussian, Inc.),
 the Gaussian 88(TM) system (copyright 1988, Gaussian, Inc.),
 the Gaussian 86(TM) system (copyright 1986, Carnegie Mellon
 University), and the Gaussian 82(TM) system (copyright 1983,
 Carnegie Mellon University). Gaussian is a federally registered
 trademark of Gaussian, Inc.
  
 This software contains proprietary and confidential information,
 including trade secrets, belonging to Gaussian, Inc.
  
 This software is provided under written license and may be
 used, copied, transmitted, or stored only in accord with that
 written license.
  
 The following legend is applicable only to US Government
 contracts under FAR:
  
                    RESTRICTED RIGHTS LEGEND
  
 Use, reproduction and disclosure by the US Government is
 subject to restrictions as set forth in subparagraphs (a)
 and (c) of the Commercial Computer Software - Restricted
 Rights clause in FAR 52.227-19.
  
 Gaussian, Inc.
 340 Quinnipiac St., Bldg. 40, Wallingford CT 06492
  
  
 ---------------------------------------------------------------
 Warning -- This program may not be used in any manner that
 competes with the business of Gaussian, Inc. or will provide
 assistance to any competitor of Gaussian, Inc.  The licensee
 of this program is prohibited from giving any competitor of
 Gaussian, Inc. access to this program.  By using this program,
 the user acknowledges that Gaussian, Inc. is engaged in the
 business of creating and licensing software in the field of
 computational chemistry and represents and warrants to the
 licensee that it is not a competitor of Gaussian, Inc. and that
 it will not use this program in any manner prohibited above.
 ---------------------------------------------------------------
  

 Cite this work as:
 Gaussian 09, Revision D.01,
 M. J. Frisch, G. W. Trucks, H. B. Schlegel, G. E. Scuseria, 
 M. A. Robb, J. R. Cheeseman, G. Scalmani, V. Barone, B. Mennucci, 
 G. A. Petersson, H. Nakatsuji, M. Caricato, X. Li, H. P. Hratchian, 
 A. F. Izmaylov, J. Bloino, G. Zheng, J. L. Sonnenberg, M. Hada, 
 M. Ehara, K. Toyota, R. Fukuda, J. Hasegawa, M. Ishida, T. Nakajima, 
 Y. Honda, O. Kitao, H. Nakai, T. Vreven, J. A. Montgomery, Jr., 
 J. E. Peralta, F. Ogliaro, M. Bearpark, J. J. Heyd, E. Brothers, 
 K. N. Kudin, V. N. Staroverov, T. Keith, R. Kobayashi, J. Normand, 
 K. Raghavachari, A. Rendell, J. C. Burant, S. S. Iyengar, J. Tomasi, 
 M. Cossi, N. Rega, J. M. Millam, M. Klene, J. E. Knox, J. B. Cross, 
 V. Bakken, C. Adamo, J. Jaramillo, R. Gomperts, R. E. Stratmann, 
 O. Yazyev, A. J. Austin, R. Cammi, C. Pomelli, J. W. Ochterski, 
 R. L. Martin, K. Morokuma, V. G. Zakrzewski, G. A. Voth, 
 P. Salvador, J. J. Dannenberg, S. Dapprich, A. D. Daniels, 
 O. Farkas, J. B. Foresman, J. V. Ortiz, J. Cioslowski, 
 and D. J. Fox, Gaussian, Inc., Wallingford CT, 2013.
 
 ******************************************
 Gaussian 09:  ES64L-G09RevD.01 24-Apr-2013
                 6-Nov-2017 
 ******************************************
 %chk=2hc_1_rel-mega_dimer_0.chk
 %nproc=4
 Will use up to    4 processors via shared memory.
 %mem=28GB
 --------------------------------------
 #p wb97xd 6-31G* td=(nstates=4) nosymm
 --------------------------------------
 1/38=1/1;
 2/12=2,15=1,17=6,18=5,40=1/2;
 3/5=1,6=6,7=1,11=9,16=1,25=1,30=1,74=-58/1,2,8,3;
 4//1;
 5/5=2,38=5/2;
 8/6=1,10=2,108=4/1;
 9/41=4,42=1,70=2/14;
 6/7=2,8=2,9=2,10=2/1;
 99/5=1,9=1/99;
 Leave Link    1 at Mon Nov  6 20:50:44 2017, MaxMem=  3758096384 cpu:         0.1
 (Enter /share/apps/gaussian/g09_D01/g09/l101.exe)
 -----
 Title
 -----
 Symbolic Z-matrix:
 Charge =  0 Multiplicity = 1
 C                    -0.0456   -3.21264  -0.67304 
 C                    -1.16356  -4.03755  -0.99906 
 H                    -0.12129  -2.47529   0.12188 
 C                     1.14661  -3.33552  -1.34859 
 C                    -0.99793  -4.97495  -2.05567 
 N                    -2.33745  -3.93316  -0.32458 
 C                     1.3206   -4.2705   -2.39922 
 H                     1.97111  -2.6822   -1.06047 
 C                     0.20216  -5.07477  -2.7253 
 H                    -1.8261   -5.61189  -2.35623 
 C                    -3.45104  -4.81759  -0.63829 
 C                    -2.48278  -2.95113   0.73861 
 C                     2.5213   -4.39693  -3.16445 
 H                     0.29953  -5.79229  -3.54133 
 H                    -3.15029  -5.87257  -0.54965 
 H                    -4.26893  -4.62644   0.06324 
 H                    -3.81896  -4.64893  -1.66218 
 H                    -2.29016  -1.93341   0.36524 
 H                    -3.50245  -2.99128   1.13259 
 H                    -1.7832   -3.15238   1.56346 
 C                     3.70418  -3.73004  -2.97634 
 H                     2.47843  -5.09195  -4.01001 
 C                     4.82425  -3.90407  -3.86262 
 H                     3.81017  -3.04269  -2.1395 
 C                     6.11603  -3.24131  -3.59483 
 O                     4.72679  -4.64403  -4.90867 
 C                     7.19644  -3.4445   -4.50546 
 C                     6.35306  -2.41888  -2.473 
 H                     6.04768  -4.52891  -5.53026 
 C                     8.44931  -2.86207  -4.2561 
 O                     7.03904  -4.19827  -5.6112 
 C                     7.5888   -1.83401  -2.24194 
 H                     5.55265  -2.22183  -1.76161 
 C                     8.64194  -2.06555  -3.13706 
 H                     9.25731  -3.06914  -4.95777 
 H                     7.73762  -1.19613  -1.37118 
 H                     9.61957  -1.61959  -2.9473 
 
 NAtoms=     37 NQM=       37 NQMF=       0 NMMI=      0 NMMIF=      0
                NMic=       0 NMicF=      0.
                    Isotopes and Nuclear Properties:
 (Nuclear quadrupole moments (NQMom) in fm**2, nuclear magnetic moments (NMagM)
  in nuclear magnetons)

  Atom         1           2           3           4           5           6           7           8           9          10
 IAtWgt=          12          12           1          12          12          14          12           1          12           1
 AtmWgt=  12.0000000  12.0000000   1.0078250  12.0000000  12.0000000  14.0030740  12.0000000   1.0078250  12.0000000   1.0078250
 NucSpn=           0           0           1           0           0           2           0           1           0           1
 AtZEff=   0.0000000   0.0000000   0.0000000   0.0000000   0.0000000   0.0000000   0.0000000   0.0000000   0.0000000   0.0000000
 NQMom=    0.0000000   0.0000000   0.0000000   0.0000000   0.0000000   2.0440000   0.0000000   0.0000000   0.0000000   0.0000000
 NMagM=    0.0000000   0.0000000   2.7928460   0.0000000   0.0000000   0.4037610   0.0000000   2.7928460   0.0000000   2.7928460
 AtZNuc=   6.0000000   6.0000000   1.0000000   6.0000000   6.0000000   7.0000000   6.0000000   1.0000000   6.0000000   1.0000000

  Atom        11          12          13          14          15          16          17          18          19          20
 IAtWgt=          12          12          12           1           1           1           1           1           1           1
 AtmWgt=  12.0000000  12.0000000  12.0000000   1.0078250   1.0078250   1.0078250   1.0078250   1.0078250   1.0078250   1.0078250
 NucSpn=           0           0           0           1           1           1           1           1           1           1
 AtZEff=   0.0000000   0.0000000   0.0000000   0.0000000   0.0000000   0.0000000   0.0000000   0.0000000   0.0000000   0.0000000
 NQMom=    0.0000000   0.0000000   0.0000000   0.0000000   0.0000000   0.0000000   0.0000000   0.0000000   0.0000000   0.0000000
 NMagM=    0.0000000   0.0000000   0.0000000   2.7928460   2.7928460   2.7928460   2.7928460   2.7928460   2.7928460   2.7928460
 AtZNuc=   6.0000000   6.0000000   6.0000000   1.0000000   1.0000000   1.0000000   1.0000000   1.0000000   1.0000000   1.0000000

  Atom        21          22          23          24          25          26          27          28          29          30
 IAtWgt=          12           1          12           1          12          16          12          12           1          12
 AtmWgt=  12.0000000   1.0078250  12.0000000   1.0078250  12.0000000  15.9949146  12.0000000  12.0000000   1.0078250  12.0000000
 NucSpn=           0           1           0           1           0           0           0           0           1           0
 AtZEff=   0.0000000   0.0000000   0.0000000   0.0000000   0.0000000   0.0000000   0.0000000   0.0000000   0.0000000   0.0000000
 NQMom=    0.0000000   0.0000000   0.0000000   0.0000000   0.0000000   0.0000000   0.0000000   0.0000000   0.0000000   0.0000000
 NMagM=    0.0000000   2.7928460   0.0000000   2.7928460   0.0000000   0.0000000   0.0000000   0.0000000   2.7928460   0.0000000
 AtZNuc=   6.0000000   1.0000000   6.0000000   1.0000000   6.0000000   8.0000000   6.0000000   6.0000000   1.0000000   6.0000000

  Atom        31          32          33          34          35          36          37
 IAtWgt=          16          12           1          12           1           1           1
 AtmWgt=  15.9949146  12.0000000   1.0078250  12.0000000   1.0078250   1.0078250   1.0078250
 NucSpn=           0           0           1           0           1           1           1
 AtZEff=   0.0000000   0.0000000   0.0000000   0.0000000   0.0000000   0.0000000   0.0000000
 NQMom=    0.0000000   0.0000000   0.0000000   0.0000000   0.0000000   0.0000000   0.0000000
 NMagM=    0.0000000   0.0000000   2.7928460   0.0000000   2.7928460   2.7928460   2.7928460
 AtZNuc=   8.0000000   6.0000000   1.0000000   6.0000000   1.0000000   1.0000000   1.0000000
 Leave Link  101 at Mon Nov  6 20:50:44 2017, MaxMem=  3758096384 cpu:         0.3
 (Enter /share/apps/gaussian/g09_D01/g09/l202.exe)
                          Input orientation:                          
 ---------------------------------------------------------------------
 Center     Atomic      Atomic             Coordinates (Angstroms)
 Number     Number       Type             X           Y           Z
 ---------------------------------------------------------------------
      1          6           0       -0.045604   -3.212643   -0.673042
      2          6           0       -1.163557   -4.037551   -0.999057
      3          1           0       -0.121291   -2.475288    0.121883
      4          6           0        1.146608   -3.335524   -1.348586
      5          6           0       -0.997931   -4.974953   -2.055672
      6          7           0       -2.337452   -3.933160   -0.324579
      7          6           0        1.320601   -4.270503   -2.399224
      8          1           0        1.971105   -2.682196   -1.060472
      9          6           0        0.202155   -5.074774   -2.725295
     10          1           0       -1.826104   -5.611893   -2.356233
     11          6           0       -3.451039   -4.817588   -0.638286
     12          6           0       -2.482782   -2.951131    0.738607
     13          6           0        2.521300   -4.396929   -3.164451
     14          1           0        0.299534   -5.792287   -3.541330
     15          1           0       -3.150286   -5.872565   -0.549647
     16          1           0       -4.268925   -4.626441    0.063239
     17          1           0       -3.818958   -4.648925   -1.662177
     18          1           0       -2.290162   -1.933406    0.365237
     19          1           0       -3.502453   -2.991283    1.132588
     20          1           0       -1.783201   -3.152381    1.563457
     21          6           0        3.704177   -3.730044   -2.976341
     22          1           0        2.478430   -5.091951   -4.010014
     23          6           0        4.824246   -3.904072   -3.862622
     24          1           0        3.810173   -3.042685   -2.139497
     25          6           0        6.116034   -3.241308   -3.594826
     26          8           0        4.726790   -4.644034   -4.908669
     27          6           0        7.196441   -3.444502   -4.505463
     28          6           0        6.353060   -2.418884   -2.472996
     29          1           0        6.047681   -4.528914   -5.530262
     30          6           0        8.449310   -2.862065   -4.256098
     31          8           0        7.039043   -4.198267   -5.611204
     32          6           0        7.588797   -1.834009   -2.241935
     33          1           0        5.552651   -2.221827   -1.761605
     34          6           0        8.641937   -2.065551   -3.137064
     35          1           0        9.257308   -3.069135   -4.957770
     36          1           0        7.737617   -1.196134   -1.371176
     37          1           0        9.619574   -1.619592   -2.947297
 ---------------------------------------------------------------------
                    Distance matrix (angstroms):
                    1          2          3          4          5
     1  C    0.000000
     2  C    1.427087   0.000000
     3  H    1.086889   2.187119   0.000000
     4  C    1.375801   2.439646   2.123641   0.000000
     5  C    2.433994   1.422178   3.429077   2.790474   0.000000
     6  N    2.427579   1.357883   2.689998   3.680276   2.424115
     7  C    2.442394   2.861079   3.414356   1.417145   2.447421
     8  H    2.120988   3.415679   2.412239   1.090707   3.881022
     9  C    2.782204   2.433290   3.868897   2.410873   1.377884
    10  H    3.429244   2.181616   4.345772   3.877399   1.087152
    11  C    3.764843   2.443601   4.141431   4.882561   2.837514
    12  C    2.828600   2.437240   2.486647   4.204355   3.756146
    13  C    3.768109   4.289086   4.634219   2.512713   3.734768
    14  H    3.873081   3.418024   4.959708   3.400198   2.135095
    15  H    4.090166   2.741594   4.600788   5.053531   2.776049
    16  H    4.514131   3.334453   4.672662   5.743493   3.912882
    17  H    4.156861   2.804400   4.645461   5.145892   2.866937
    18  H    2.784333   2.749175   2.248746   4.088339   4.096544
    19  H    3.906290   3.333020   3.566515   5.280956   4.513599
    20  H    2.832808   2.781000   2.301855   4.134890   4.127531
    21  C    4.430998   5.262988   5.080119   3.057187   4.950480
    22  H    4.586712   4.841662   5.538777   3.455718   3.989765
    23  C    5.862332   6.638645   6.509688   4.490951   6.189475
    24  H    4.128728   5.198880   4.570797   2.793899   5.182524
    25  C    6.819342   7.769457   7.301023   5.454325   7.482180
    26  O    6.539508   7.095708   7.315313   5.215754   6.404805
    27  C    8.196855   9.084941   8.712113   6.824824   8.688584
    28  C    6.694235   7.828928   6.975228   5.404782   7.793890
    29  H    7.902739   8.530839   8.615123   6.552184   7.868442
    30  C    9.226308  10.217499   9.631797   7.874468   9.927564
    31  O    8.691900   9.411715   9.333131   7.323594   8.822585
    32  C    7.914931   9.110655   8.089767   6.674910   9.145060
    33  H    5.788536   6.998984   5.983760   4.563345   7.111702
    34  C    9.102779  10.227784   9.358567   7.809702  10.127245
    35  H   10.243225  11.189444  10.682399   8.881477  10.827014
    36  H    8.070454   9.351097   8.101105   6.929567   9.542421
    37  H   10.056128  11.221323  10.248733   8.791556  11.170714
                    6          7          8          9         10
     6  N    0.000000
     7  C    4.218922   0.000000
     8  H    4.546440   2.176725   0.000000
     9  C    3.676455   1.415661   3.409582   0.000000
    10  H    2.684630   3.420954   4.967989   2.130385   0.000000
    11  C    1.456263   5.115540   5.842755   4.215160   2.494529
    12  C    1.454602   5.104160   4.811042   4.870048   4.133874
    13  C    5.646895   1.429417   2.769432   2.455762   4.585769
    14  H    4.556044   2.159354   4.315260   1.090972   2.440355
    15  H    2.114863   5.096702   6.055414   4.075387   2.255030
    16  H    2.088451   6.118269   6.631801   5.288429   3.576637
    17  H    2.120459   5.205911   6.144502   4.181019   2.319588
    18  H    2.115916   5.112913   4.555407   5.062729   4.599241
    19  H    2.089903   6.113260   5.904649   5.740062   4.674357
    20  H    2.116953   5.156222   4.604443   5.102022   4.627635
    21  C    6.601089   2.511293   2.787845   3.759718   5.874513
    22  H    6.173973   2.147089   3.842408   2.613853   4.640511
    23  C    7.988023   3.814621   4.181559   4.901814   7.029439
    24  H    6.471489   2.788004   2.162503   4.182145   6.198018
    25  C    9.090358   5.048256   4.890398   6.252331   8.380414
    26  O    8.451197   4.247230   5.123595   5.042319   7.098739
    27  C   10.421789   6.296349   6.305015   7.399110   9.524867
    28  C    9.079302   5.362796   4.611517   6.704554   8.781097
    29  H    9.887594   5.675867   6.325177   6.506610   8.558259
    30  C   11.530755   7.500011   7.225754   8.674964  10.805331
    31  O   10.767420   6.559162   6.977939   7.472601   9.549032
    32  C   10.325362   6.726925   5.802908   8.080760  10.145237
    33  H    8.200453   4.744879   3.678451   6.139692   8.141999
    34  C   11.486732   7.681678   7.013735   8.969665  11.079987
    35  H   12.516048   8.425008   8.272086   9.539514  11.665146
    36  H   10.492554   7.189348   5.963018   8.582580  10.579888
    37  H   12.457998   8.729299   7.949108  10.033711  12.136366
                   11         12         13         14         15
    11  C    0.000000
    12  C    2.513368   0.000000
    13  C    6.498253   6.508842   0.000000
    14  H    4.841952   5.842201   2.650529   0.000000
    15  H    1.100584   3.261892   6.417288   4.567042   0.000000
    16  H    1.094355   2.540294   7.521823   5.934891   1.783201
    17  H    1.100983   3.229804   6.520675   4.669097   1.783855
    18  H    3.266986   1.101032   6.455835   6.071141   4.134465
    19  H    2.544411   1.093875   7.531665   6.644264   3.354955
    20  H    3.225255   1.100133   6.513888   6.112752   3.705878
    21  C    7.605680   7.258513   1.370883   4.020405   7.580429
    22  H    6.826597   7.193479   1.095386   2.336177   6.653265
    23  C    8.928113   8.687466   2.456402   4.913411   8.856858
    24  H    7.624245   6.920488   2.132065   4.674402   7.680093
    25  C   10.136798   9.633404   3.800368   6.351537  10.102540
    26  O    9.227306   9.313194   2.822684   4.773751   9.086181
    27  C   11.410927  11.019575   4.956044   7.349080  11.340138
    28  C   10.258669   9.416463   4.367283   7.011873  10.292753
    29  H   10.688332  10.703126   4.248511   6.212339  10.545830
    30  C   12.590907  12.019386   6.220032   8.689991  12.543983
    31  O   11.625631  11.512628   5.141602   7.228157  11.499785
    32  C   11.547788  10.562589   5.753184   8.395817  11.597486
    33  H    9.437492   8.446960   3.985992   6.596275   9.515138
    34  C   12.651390  11.813740   6.549677   9.145911  12.658776
    35  H   13.535772  13.049611   7.095973   9.469085  13.462509
    36  H   11.782957  10.582427   6.377373   9.008844  11.878146
    37  H   13.652825  12.721081   7.625369  10.228754  13.671351
                   16         17         18         19         20
    16  H    0.000000
    17  H    1.783266   0.000000
    18  H    3.355465   3.717750   0.000000
    19  H    2.098744   3.264761   1.782577   0.000000
    20  H    3.256122   4.097397   1.782874   1.779727   0.000000
    21  C    8.579798   7.692134   7.094093   8.328540   7.145263
    22  H    7.895245   6.735407   7.201298   8.162728   7.279218
    23  C    9.930758   8.949958   8.507239   9.752908   8.582874
    24  H    8.522450   7.810985   6.687173   8.011472   6.708929
    25  C   11.097180  10.218639   9.383860  10.720366   9.434707
    26  O   10.278281   9.141638   9.186904  10.341606   9.300184
    27  C   12.398574  11.440014  10.770458  12.102039  10.842098
    28  C   11.141470  10.445117   9.110244  10.509948   9.112064
    29  H   11.735805  10.598446  10.536280  11.745763  10.655440
    30  C   13.547073  12.666163  11.728402  13.111036  11.775219
    31  O   12.659099  11.562616  11.308471  12.572139  11.419353
    32  C   12.398269  11.764215  10.217684  11.650859  10.200660
    33  H   10.274998   9.681309   8.131197   9.537469   8.107817
    34  C   13.545865  12.811051  11.480173  12.906321  11.487367
    35  H   14.511882  13.577386  12.765906  14.138954  12.822877
    36  H   12.569073  12.064861  10.203678  11.654637  10.153076
    37  H   14.525663  13.835553  12.365807  13.809945  12.357978
                   21         22         23         24         25
    21  C    0.000000
    22  H    2.103741   0.000000
    23  C    1.438866   2.633559   0.000000
    24  H    1.088120   3.077639   2.177037   0.000000
    25  C    2.537408   4.102368   1.476376   2.733940   0.000000
    26  O    2.369601   2.462384   1.285012   3.327585   2.371460
    27  C    3.823043   5.021871   2.500352   4.150429   1.427525
    28  C    2.998179   4.951815   2.544428   2.639436   1.411051
    29  H    3.557066   3.920168   2.160612   4.325807   2.325621
    30  C    4.990737   6.378429   3.792320   5.102374   2.454645
    31  O    4.275870   4.915452   2.837149   4.879930   2.415263
    32  C    4.384584   6.313172   3.815040   3.968550   2.445370
    33  H    2.677155   4.769045   2.788332   1.962865   2.171967
    34  C    5.213237   6.921702   4.298995   5.029500   2.823497
    35  H    5.932969   7.137451   4.642037   6.133078   3.428536
    36  H    5.026519   7.056905   4.693396   4.407367   3.428832
    37  H    6.280667   8.011403   5.389976   6.035468   3.914594
                   26         27         28         29         30
    26  O    0.000000
    27  C    2.775001   0.000000
    28  C    3.678118   2.427778   0.000000
    29  H    1.464371   1.883033   3.727245   0.000000
    30  C    4.178327   1.403957   2.787495   3.188997   0.000000
    31  O    2.457392   1.347442   3.672210   1.048178   2.368671
    32  C    4.816513   2.805564   1.386547   4.522239   2.419553
    33  H    4.056248   3.424286   1.088836   4.446401   3.875956
    34  C    5.011540   2.421462   2.409313   4.304151   1.387003
    35  H    4.796698   2.143048   3.877059   3.572171   1.089992
    36  H    5.785063   3.895098   2.150842   5.591181   3.406554
    37  H    6.077299   3.410242   3.396166   5.281504   2.150864
                   31         32         33         34         35
    31  O    0.000000
    32  C    4.152580   0.000000
    33  H    4.575488   2.127677   0.000000
    34  C    3.638560   1.401418   3.385262   0.000000
    35  H    2.573444   3.418366   4.965671   2.168140   0.000000
    36  H    5.242008   1.089611   2.445109   2.166112   4.322181
    37  H    4.517201   2.160455   4.278833   1.091176   2.504878
                   36         37
    36  H    0.000000
    37  H    2.491031   0.000000
 Symmetry turned off by external request.
 Stoichiometry    C17H17NO2
 Framework group  C1[X(C17H17NO2)]
 Deg. of freedom   105
 Full point group                 C1      NOp   1
 Rotational constants (GHZ):      1.0904249      0.1072611      0.0979095
 Leave Link  202 at Mon Nov  6 20:50:44 2017, MaxMem=  3758096384 cpu:         0.0
 (Enter /share/apps/gaussian/g09_D01/g09/l301.exe)
 Standard basis: 6-31G(d) (6D, 7F)
 Ernie: Thresh=  0.10000D-02 Tol=  0.10000D-05 Strict=F.
   334 basis functions,   628 primitive gaussians,   334 cartesian basis functions
    71 alpha electrons       71 beta electrons
       nuclear repulsion energy      1358.4109231705 Hartrees.
 IExCor= 4639 DFT=T Ex+Corr=wB97XD ExCW=0 ScaHFX=  1.000000
 ScaDFX=  1.000000  1.000000  1.000000  1.000000 ScalE2=  1.000000  1.000000
 IRadAn=      0 IRanWt=     -1 IRanGd=            0 ICorTp=0 IEmpDi=121
  HFx wShort=  0.000000 wLong=  0.200000 cFull=  0.222036 cShort=  0.000000 cLong=  0.777964
  DFx wShort=  0.000000 wLong=  0.200000 cFull=  0.000000 cShort=  0.000000 cLong=  1.000000
 NAtoms=   37 NActive=   37 NUniq=   37 SFac= 1.00D+00 NAtFMM=   60 NAOKFM=F Big=F
 Integral buffers will be    131072 words long.
 Raffenetti 1 integral format.
 Two-electron integral symmetry is turned off.
 R6Disp:  Grimme-D2 Dispersion energy=       -0.0228555472 Hartrees.
 Nuclear repulsion after empirical dispersion term =     1358.3880676233 Hartrees.
 Leave Link  301 at Mon Nov  6 20:50:44 2017, MaxMem=  3758096384 cpu:         0.1
 (Enter /share/apps/gaussian/g09_D01/g09/l302.exe)
 NPDir=0 NMtPBC=     1 NCelOv=     1 NCel=       1 NClECP=     1 NCelD=      1
         NCelK=      1 NCelE2=     1 NClLst=     1 CellRange=     0.0.
 One-electron integrals computed using PRISM.
 NBasis=   334 RedAO= T EigKep=  3.83D-04  NBF=   334
 NBsUse=   334 1.00D-06 EigRej= -1.00D+00 NBFU=   334
 Precomputing XC quadrature grid using
 IXCGrd= 4 IRadAn=           0 IRanWt=          -1 IRanGd=           0 AccXCQ= 0.00D+00.
 Generated NRdTot=       0 NPtTot=           0 NUsed=           0 NTot=          32
 NSgBfM=   326   326   326   326   326 MxSgAt=    37 MxSgA2=    37.
 Leave Link  302 at Mon Nov  6 20:50:45 2017, MaxMem=  3758096384 cpu:         1.8
 (Enter /share/apps/gaussian/g09_D01/g09/l308.exe)
 Leave Link  308 at Mon Nov  6 20:50:45 2017, MaxMem=  3758096384 cpu:         0.2
 (Enter /share/apps/gaussian/g09_D01/g09/l303.exe)
 DipDrv:  MaxL=1.
 Leave Link  303 at Mon Nov  6 20:50:45 2017, MaxMem=  3758096384 cpu:         0.1
 (Enter /share/apps/gaussian/g09_D01/g09/l401.exe)
 ExpMin= 1.61D-01 ExpMax= 5.48D+03 ExpMxC= 8.25D+02 IAcc=1 IRadAn=         1 AccDes= 0.00D+00
 Harris functional with IExCor= 4639 and IRadAn=       1 diagonalized for initial guess.
 HarFok:  IExCor= 4639 AccDes= 0.00D+00 IRadAn=         1 IDoV= 1 UseB2=F ITyADJ=14
 ICtDFT=  3500011 ScaDFX=  1.000000  1.000000  1.000000  1.000000
 FoFCou: FMM=F IPFlag=           0 FMFlag=      100000 FMFlg1=           0
         NFxFlg=           0 DoJE=T BraDBF=F KetDBF=T FulRan=T
         wScrn=  0.000000 ICntrl=     500 IOpCl=  0 I1Cent=   200000004 NGrid=           0
         NMat0=    1 NMatS0=      1 NMatT0=    0 NMatD0=    1 NMtDS0=    0 NMtDT0=    0
 Symmetry not used in FoFCou.
 Harris En= -825.250758999013    
 JPrj=0 DoOrth=F DoCkMO=F.
 Leave Link  401 at Mon Nov  6 20:50:46 2017, MaxMem=  3758096384 cpu:         3.5
 (Enter /share/apps/gaussian/g09_D01/g09/l502.exe)
 Closed shell SCF:
 Using DIIS extrapolation, IDIIS=  1040.
 Two-electron integral symmetry not used.
 Keep R1 ints in memory in canonical form, NReq=3149053790.
 IVT=      357300 IEndB=      357300 NGot=  3758096384 MDV=   627840115
 LenX=   627840115 LenY=   627728118
 Requested convergence on RMS density matrix=1.00D-08 within 128 cycles.
 Requested convergence on MAX density matrix=1.00D-06.
 Requested convergence on             energy=1.00D-06.
 No special actions if energy rises.
 FoFCou: FMM=F IPFlag=           0 FMFlag=           0 FMFlg1=           0
         NFxFlg=           0 DoJE=F BraDBF=F KetDBF=F FulRan=T
         wScrn=  0.000000 ICntrl=     600 IOpCl=  0 I1Cent=           0 NGrid=           0
         NMat0=    1 NMatS0=  55945 NMatT0=    0 NMatD0=    1 NMtDS0=    0 NMtDT0=    0
 Symmetry not used in FoFCou.
 Integral accuracy reduced to 1.0D-05 until final iterations.

 Cycle   1  Pass 0  IDiag  1:
 E= -862.694348265550    
 DIIS: error= 6.31D-02 at cycle   1 NSaved=   1.
 NSaved= 1 IEnMin= 1 EnMin= -862.694348265550     IErMin= 1 ErrMin= 6.31D-02
 ErrMax= 6.31D-02  0.00D+00 EMaxC= 1.00D-01 BMatC= 8.42D-01 BMatP= 8.42D-01
 IDIUse=3 WtCom= 3.69D-01 WtEn= 6.31D-01
 Coeff-Com:  0.100D+01
 Coeff-En:   0.100D+01
 Coeff:      0.100D+01
 Gap=     0.286 Goal=   None    Shift=    0.000
 GapD=    0.286 DampG=1.000 DampE=0.500 DampFc=0.5000 IDamp=-1.
 Damping current iteration by 5.00D-01
 RMSDP=3.03D-03 MaxDP=1.19D-01              OVMax= 1.93D-01

 Cycle   2  Pass 0  IDiag  1:
 E= -862.807238595837     Delta-E=       -0.112890330287 Rises=F Damp=T
 DIIS: error= 3.25D-02 at cycle   2 NSaved=   2.
 NSaved= 2 IEnMin= 2 EnMin= -862.807238595837     IErMin= 2 ErrMin= 3.25D-02
 ErrMax= 3.25D-02  0.00D+00 EMaxC= 1.00D-01 BMatC= 1.78D-01 BMatP= 8.42D-01
 IDIUse=3 WtCom= 6.75D-01 WtEn= 3.25D-01
 Coeff-Com: -0.425D+00 0.143D+01
 Coeff-En:   0.000D+00 0.100D+01
 Coeff:     -0.287D+00 0.129D+01
 Gap=     0.270 Goal=   None    Shift=    0.000
 RMSDP=1.34D-03 MaxDP=4.60D-02 DE=-1.13D-01 OVMax= 1.85D-01

 Cycle   3  Pass 0  IDiag  1:
 E= -862.894799414763     Delta-E=       -0.087560818926 Rises=F Damp=F
 DIIS: error= 1.21D-02 at cycle   3 NSaved=   3.
 NSaved= 3 IEnMin= 3 EnMin= -862.894799414763     IErMin= 3 ErrMin= 1.21D-02
 ErrMax= 1.21D-02  0.00D+00 EMaxC= 1.00D-01 BMatC= 5.62D-02 BMatP= 1.78D-01
 IDIUse=3 WtCom= 8.79D-01 WtEn= 1.21D-01
 Coeff-Com: -0.318D+00 0.659D+00 0.659D+00
 Coeff-En:   0.000D+00 0.000D+00 0.100D+01
 Coeff:     -0.279D+00 0.579D+00 0.700D+00
 Gap=     0.258 Goal=   None    Shift=    0.000
 RMSDP=8.61D-04 MaxDP=4.01D-02 DE=-8.76D-02 OVMax= 7.50D-02

 Cycle   4  Pass 0  IDiag  1:
 E= -862.942062999486     Delta-E=       -0.047263584724 Rises=F Damp=F
 DIIS: error= 3.49D-03 at cycle   4 NSaved=   4.
 NSaved= 4 IEnMin= 4 EnMin= -862.942062999486     IErMin= 4 ErrMin= 3.49D-03
 ErrMax= 3.49D-03  0.00D+00 EMaxC= 1.00D-01 BMatC= 4.46D-03 BMatP= 5.62D-02
 IDIUse=3 WtCom= 9.65D-01 WtEn= 3.49D-02
 Coeff-Com: -0.138D+00 0.281D+00 0.385D+00 0.472D+00
 Coeff-En:   0.000D+00 0.000D+00 0.000D+00 0.100D+01
 Coeff:     -0.133D+00 0.271D+00 0.371D+00 0.491D+00
 Gap=     0.242 Goal=   None    Shift=    0.000
 RMSDP=1.96D-04 MaxDP=1.05D-02 DE=-4.73D-02 OVMax= 1.38D-02

 Cycle   5  Pass 0  IDiag  1:
 E= -862.945834759105     Delta-E=       -0.003771759619 Rises=F Damp=F
 DIIS: error= 4.20D-04 at cycle   5 NSaved=   5.
 NSaved= 5 IEnMin= 5 EnMin= -862.945834759105     IErMin= 5 ErrMin= 4.20D-04
 ErrMax= 4.20D-04  0.00D+00 EMaxC= 1.00D-01 BMatC= 9.70D-05 BMatP= 4.46D-03
 IDIUse=3 WtCom= 9.96D-01 WtEn= 4.20D-03
 Coeff-Com:  0.235D-02-0.625D-02 0.286D-01 0.134D+00 0.841D+00
 Coeff-En:   0.000D+00 0.000D+00 0.000D+00 0.000D+00 0.100D+01
 Coeff:      0.234D-02-0.623D-02 0.285D-01 0.134D+00 0.842D+00
 Gap=     0.243 Goal=   None    Shift=    0.000
 RMSDP=5.94D-05 MaxDP=2.25D-03 DE=-3.77D-03 OVMax= 7.07D-03

 Cycle   6  Pass 0  IDiag  1:
 E= -862.945996917701     Delta-E=       -0.000162158596 Rises=F Damp=F
 DIIS: error= 2.67D-04 at cycle   6 NSaved=   6.
 NSaved= 6 IEnMin= 6 EnMin= -862.945996917701     IErMin= 6 ErrMin= 2.67D-04
 ErrMax= 2.67D-04  0.00D+00 EMaxC= 1.00D-01 BMatC= 3.21D-05 BMatP= 9.70D-05
 IDIUse=3 WtCom= 9.97D-01 WtEn= 2.67D-03
 Coeff-Com:  0.326D-01-0.672D-01-0.713D-01-0.492D-01 0.423D+00 0.732D+00
 Coeff-En:   0.000D+00 0.000D+00 0.000D+00 0.000D+00 0.000D+00 0.100D+01
 Coeff:      0.325D-01-0.670D-01-0.711D-01-0.491D-01 0.422D+00 0.732D+00
 Gap=     0.244 Goal=   None    Shift=    0.000
 RMSDP=3.19D-05 MaxDP=1.20D-03 DE=-1.62D-04 OVMax= 5.20D-03

 Cycle   7  Pass 0  IDiag  1:
 E= -862.946054050901     Delta-E=       -0.000057133199 Rises=F Damp=F
 DIIS: error= 1.21D-04 at cycle   7 NSaved=   7.
 NSaved= 7 IEnMin= 7 EnMin= -862.946054050901     IErMin= 7 ErrMin= 1.21D-04
 ErrMax= 1.21D-04  0.00D+00 EMaxC= 1.00D-01 BMatC= 2.85D-06 BMatP= 3.21D-05
 IDIUse=3 WtCom= 9.99D-01 WtEn= 1.21D-03
 Coeff-Com:  0.704D-02-0.144D-01-0.179D-01-0.229D-01 0.124D-01 0.224D+00
 Coeff-Com:  0.812D+00
 Coeff-En:   0.000D+00 0.000D+00 0.000D+00 0.000D+00 0.000D+00 0.000D+00
 Coeff-En:   0.100D+01
 Coeff:      0.703D-02-0.143D-01-0.179D-01-0.229D-01 0.124D-01 0.224D+00
 Coeff:      0.812D+00
 Gap=     0.244 Goal=   None    Shift=    0.000
 RMSDP=1.17D-05 MaxDP=2.61D-04 DE=-5.71D-05 OVMax= 1.80D-03

 Cycle   8  Pass 0  IDiag  1:
 E= -862.946060649946     Delta-E=       -0.000006599045 Rises=F Damp=F
 DIIS: error= 3.80D-05 at cycle   8 NSaved=   8.
 NSaved= 8 IEnMin= 8 EnMin= -862.946060649946     IErMin= 8 ErrMin= 3.80D-05
 ErrMax= 3.80D-05  0.00D+00 EMaxC= 1.00D-01 BMatC= 7.34D-07 BMatP= 2.85D-06
 IDIUse=1 WtCom= 1.00D+00 WtEn= 0.00D+00
 Coeff-Com: -0.334D-02 0.702D-02 0.624D-02-0.945D-03-0.942D-01-0.476D-01
 Coeff-Com:  0.362D+00 0.771D+00
 Coeff:     -0.334D-02 0.702D-02 0.624D-02-0.945D-03-0.942D-01-0.476D-01
 Coeff:      0.362D+00 0.771D+00
 Gap=     0.244 Goal=   None    Shift=    0.000
 RMSDP=6.54D-06 MaxDP=1.48D-04 DE=-6.60D-06 OVMax= 1.21D-03

 Initial convergence to 1.0D-05 achieved.  Increase integral accuracy.
 Cycle   9  Pass 1  IDiag  1:
 E= -862.945235258056     Delta-E=        0.000825391890 Rises=F Damp=F
 DIIS: error= 1.04D-04 at cycle   1 NSaved=   1.
 NSaved= 1 IEnMin= 1 EnMin= -862.945235258056     IErMin= 1 ErrMin= 1.04D-04
 ErrMax= 1.04D-04  0.00D+00 EMaxC= 1.00D-01 BMatC= 6.83D-06 BMatP= 6.83D-06
 IDIUse=3 WtCom= 9.99D-01 WtEn= 1.04D-03
 Coeff-Com:  0.100D+01
 Coeff-En:   0.100D+01
 Coeff:      0.100D+01
 Gap=     0.244 Goal=   None    Shift=    0.000
 RMSDP=6.54D-06 MaxDP=1.48D-04 DE= 8.25D-04 OVMax= 3.69D-04

 Cycle  10  Pass 1  IDiag  1:
 E= -862.945240626311     Delta-E=       -0.000005368254 Rises=F Damp=F
 DIIS: error= 1.55D-05 at cycle   2 NSaved=   2.
 NSaved= 2 IEnMin= 2 EnMin= -862.945240626311     IErMin= 2 ErrMin= 1.55D-05
 ErrMax= 1.55D-05  0.00D+00 EMaxC= 1.00D-01 BMatC= 1.76D-07 BMatP= 6.83D-06
 IDIUse=1 WtCom= 1.00D+00 WtEn= 0.00D+00
 Coeff-Com: -0.417D-01 0.104D+01
 Coeff:     -0.417D-01 0.104D+01
 Gap=     0.244 Goal=   None    Shift=    0.000
 RMSDP=2.67D-06 MaxDP=9.45D-05 DE=-5.37D-06 OVMax= 3.02D-04

 Cycle  11  Pass 1  IDiag  1:
 E= -862.945240751540     Delta-E=       -0.000000125230 Rises=F Damp=F
 DIIS: error= 2.34D-05 at cycle   3 NSaved=   3.
 NSaved= 3 IEnMin= 3 EnMin= -862.945240751540     IErMin= 2 ErrMin= 1.55D-05
 ErrMax= 2.34D-05  0.00D+00 EMaxC= 1.00D-01 BMatC= 1.65D-07 BMatP= 1.76D-07
 IDIUse=1 WtCom= 1.00D+00 WtEn= 0.00D+00
 Coeff-Com: -0.424D-01 0.532D+00 0.510D+00
 Coeff:     -0.424D-01 0.532D+00 0.510D+00
 Gap=     0.244 Goal=   None    Shift=    0.000
 RMSDP=1.29D-06 MaxDP=5.00D-05 DE=-1.25D-07 OVMax= 9.17D-05

 Cycle  12  Pass 1  IDiag  1:
 E= -862.945240902886     Delta-E=       -0.000000151345 Rises=F Damp=F
 DIIS: error= 3.82D-06 at cycle   4 NSaved=   4.
 NSaved= 4 IEnMin= 4 EnMin= -862.945240902886     IErMin= 4 ErrMin= 3.82D-06
 ErrMax= 3.82D-06  0.00D+00 EMaxC= 1.00D-01 BMatC= 5.86D-09 BMatP= 1.65D-07
 IDIUse=1 WtCom= 1.00D+00 WtEn= 0.00D+00
 Coeff-Com: -0.364D-02-0.185D-01 0.107D+00 0.915D+00
 Coeff:     -0.364D-02-0.185D-01 0.107D+00 0.915D+00
 Gap=     0.244 Goal=   None    Shift=    0.000
 RMSDP=5.40D-07 MaxDP=1.35D-05 DE=-1.51D-07 OVMax= 9.19D-05

 Cycle  13  Pass 1  IDiag  1:
 E= -862.945240917261     Delta-E=       -0.000000014375 Rises=F Damp=F
 DIIS: error= 2.22D-06 at cycle   5 NSaved=   5.
 NSaved= 5 IEnMin= 5 EnMin= -862.945240917261     IErMin= 5 ErrMin= 2.22D-06
 ErrMax= 2.22D-06  0.00D+00 EMaxC= 1.00D-01 BMatC= 1.84D-09 BMatP= 5.86D-09
 IDIUse=1 WtCom= 1.00D+00 WtEn= 0.00D+00
 Coeff-Com:  0.390D-02-0.767D-01-0.280D-01 0.394D+00 0.707D+00
 Coeff:      0.390D-02-0.767D-01-0.280D-01 0.394D+00 0.707D+00
 Gap=     0.244 Goal=   None    Shift=    0.000
 RMSDP=2.56D-07 MaxDP=5.62D-06 DE=-1.44D-08 OVMax= 3.97D-05

 Cycle  14  Pass 1  IDiag  1:
 E= -862.945240921245     Delta-E=       -0.000000003984 Rises=F Damp=F
 DIIS: error= 9.51D-07 at cycle   6 NSaved=   6.
 NSaved= 6 IEnMin= 6 EnMin= -862.945240921245     IErMin= 6 ErrMin= 9.51D-07
 ErrMax= 9.51D-07  0.00D+00 EMaxC= 1.00D-01 BMatC= 3.09D-10 BMatP= 1.84D-09
 IDIUse=1 WtCom= 1.00D+00 WtEn= 0.00D+00
 Coeff-Com:  0.221D-02-0.214D-01-0.401D-01-0.812D-01 0.219D+00 0.922D+00
 Coeff:      0.221D-02-0.214D-01-0.401D-01-0.812D-01 0.219D+00 0.922D+00
 Gap=     0.244 Goal=   None    Shift=    0.000
 RMSDP=1.74D-07 MaxDP=4.00D-06 DE=-3.98D-09 OVMax= 3.14D-05

 Cycle  15  Pass 1  IDiag  1:
 E= -862.945240922388     Delta-E=       -0.000000001143 Rises=F Damp=F
 DIIS: error= 3.68D-07 at cycle   7 NSaved=   7.
 NSaved= 7 IEnMin= 7 EnMin= -862.945240922388     IErMin= 7 ErrMin= 3.68D-07
 ErrMax= 3.68D-07  0.00D+00 EMaxC= 1.00D-01 BMatC= 1.03D-10 BMatP= 3.09D-10
 IDIUse=1 WtCom= 1.00D+00 WtEn= 0.00D+00
 Coeff-Com:  0.334D-03 0.508D-02-0.153D-01-0.116D+00-0.365D-01 0.473D+00
 Coeff-Com:  0.689D+00
 Coeff:      0.334D-03 0.508D-02-0.153D-01-0.116D+00-0.365D-01 0.473D+00
 Coeff:      0.689D+00
 Gap=     0.244 Goal=   None    Shift=    0.000
 RMSDP=7.23D-08 MaxDP=1.79D-06 DE=-1.14D-09 OVMax= 1.33D-05

 Cycle  16  Pass 1  IDiag  1:
 E= -862.945240922588     Delta-E=       -0.000000000199 Rises=F Damp=F
 DIIS: error= 2.23D-07 at cycle   8 NSaved=   8.
 NSaved= 8 IEnMin= 8 EnMin= -862.945240922588     IErMin= 8 ErrMin= 2.23D-07
 ErrMax= 2.23D-07  0.00D+00 EMaxC= 1.00D-01 BMatC= 1.15D-11 BMatP= 1.03D-10
 IDIUse=1 WtCom= 1.00D+00 WtEn= 0.00D+00
 Coeff-Com: -0.358D-03 0.622D-02 0.270D-02-0.203D-01-0.658D-01-0.411D-01
 Coeff-Com:  0.234D+00 0.884D+00
 Coeff:     -0.358D-03 0.622D-02 0.270D-02-0.203D-01-0.658D-01-0.411D-01
 Coeff:      0.234D+00 0.884D+00
 Gap=     0.244 Goal=   None    Shift=    0.000
 RMSDP=3.23D-08 MaxDP=5.22D-07 DE=-1.99D-10 OVMax= 5.70D-06

 Cycle  17  Pass 1  IDiag  1:
 E= -862.945240922640     Delta-E=       -0.000000000053 Rises=F Damp=F
 DIIS: error= 3.53D-08 at cycle   9 NSaved=   9.
 NSaved= 9 IEnMin= 9 EnMin= -862.945240922640     IErMin= 9 ErrMin= 3.53D-08
 ErrMax= 3.53D-08  0.00D+00 EMaxC= 1.00D-01 BMatC= 1.07D-12 BMatP= 1.15D-11
 IDIUse=1 WtCom= 1.00D+00 WtEn= 0.00D+00
 Coeff-Com: -0.158D-03 0.168D-02 0.213D-02 0.409D-02-0.198D-01-0.565D-01
 Coeff-Com:  0.906D-02 0.284D+00 0.776D+00
 Coeff:     -0.158D-03 0.168D-02 0.213D-02 0.409D-02-0.198D-01-0.565D-01
 Coeff:      0.906D-02 0.284D+00 0.776D+00
 Gap=     0.244 Goal=   None    Shift=    0.000
 RMSDP=7.68D-09 MaxDP=1.49D-07 DE=-5.28D-11 OVMax= 1.09D-06

 SCF Done:  E(RwB97XD) =  -862.945240923     A.U. after   17 cycles
            NFock= 17  Conv=0.77D-08     -V/T= 2.0097
 KE= 8.546410999410D+02 PE=-4.721579208393D+03 EE= 1.645604799906D+03
 Leave Link  502 at Mon Nov  6 20:52:02 2017, MaxMem=  3758096384 cpu:       200.6
 (Enter /share/apps/gaussian/g09_D01/g09/l801.exe)
 DoSCS=F DFT=T ScalE2(SS,OS)=  1.000000  1.000000
 ExpMin= 1.61D-01 ExpMax= 5.48D+03 ExpMxC= 8.25D+02 IAcc=3 IRadAn=         5 AccDes= 0.00D+00
 HarFok:  IExCor=  205 AccDes= 0.00D+00 IRadAn=         5 IDoV=-2 UseB2=F ITyADJ=14
 ICtDFT= 12500011 ScaDFX=  1.000000  1.000000  1.000000  1.000000
 Largest valence mixing into a core orbital is  7.35D-05
 Largest core mixing into a valence orbital is  1.53D-05
 Range of M.O.s used for correlation:    21   334
 NBasis=   334 NAE=    71 NBE=    71 NFC=    20 NFV=     0
 NROrb=    314 NOA=    51 NOB=    51 NVA=   263 NVB=   263
 Leave Link  801 at Mon Nov  6 20:52:02 2017, MaxMem=  3758096384 cpu:         1.2
 (Enter /share/apps/gaussian/g09_D01/g09/l914.exe)
 RHF ground state
 MDV=  3758096384 DFT=T DoStab=F Mixed=T DoRPA=T DoScal=F NonHer=T
 Would need an additional          5672200000 words for in-memory AO integral storage.
 Making orbital integer symmetry assigments:
    16 initial guesses have been made.
 Convergence on wavefunction:    0.001000000000000
 Davidson Disk Diagonalization:  ConvIn= 1.00D-03 SkipCon=T Conv= 1.00D-03.
 Max sub-space:   200 roots to seek:    16 dimension of matrix:        26826
 Iteration     1 Dimension    16 NMult     0 NNew     16
 CISAX will form    16 AO SS matrices at one time.
 NMat=    16 NSing=    16 JSym2X= 0.
 FoFJK:  IHMeth= 1 ICntrl=       0 DoSepK=T KAlg= 0 I1Cent=   0 FoldK=F
 IRaf=         1 NMat=  32 IRICut=       1 DoRegI=T DoRafI=F ISym2E= 0.
 FoFCou: FMM=F IPFlag=           0 FMFlag=      100000 FMFlg1=           0
         NFxFlg=           0 DoJE=F BraDBF=F KetDBF=F FulRan=T
         wScrn=  0.000000 ICntrl=     500 IOpCl=  0 I1Cent=           0 NGrid=           0
         NMat0=   16 NMatS0=     16 NMatT0=    0 NMatD0=   16 NMtDS0=    0 NMtDT0=    0
 Symmetry not used in FoFCou.
 New state      2 was old state      5
 New state      3 was old state      2
 New state      4 was old state      7
 Excitation Energies [eV] at current iteration:
 Root      1 :     3.849839394219165
 Root      2 :     4.139828024945006
 Root      3 :     4.534207184855700
 Root      4 :     5.202249583805864
 Root      5 :     5.600484161945714
 Root      6 :     6.079101849489375
 Root      7 :     6.218421776796647
 Root      8 :     6.326357306432358
 Root      9 :     6.448728427033623
 Root     10 :     6.834074009972516
 Root     11 :     7.061749072593768
 Root     12 :     7.439428984591308
 Root     13 :     7.479153739039729
 Root     14 :     7.774274794583215
 Root     15 :     7.938292994172746
 Root     16 :     8.210005410579342
 Iteration     2 Dimension    24 NMult    16 NNew      8
 CISAX will form     8 AO SS matrices at one time.
 NMat=     8 NSing=     8 JSym2X= 0.
 Root      1 not converged, maximum delta is    0.045239308053360
 Root      2 not converged, maximum delta is    0.098305871172390
 Root      3 not converged, maximum delta is    0.101371527626804
 Root      4 not converged, maximum delta is    0.160336386224249
 Excitation Energies [eV] at current iteration:
 Root      1 :     3.470351856363775   Change is   -0.379487537855389
 Root      2 :     3.822900886962422   Change is   -0.316927137982583
 Root      3 :     4.010933491156264   Change is   -0.523273693699436
 Root      4 :     4.726045453994032   Change is   -0.476204129811832
 Iteration     3 Dimension    32 NMult    24 NNew      8
 CISAX will form     8 AO SS matrices at one time.
 NMat=     8 NSing=     8 JSym2X= 0.
 Root      1 not converged, maximum delta is    0.012952173752155
 Root      2 not converged, maximum delta is    0.011203260326479
 Root      3 not converged, maximum delta is    0.030992023923715
 Root      4 not converged, maximum delta is    0.051741653477591
 Excitation Energies [eV] at current iteration:
 Root      1 :     3.441838598870626   Change is   -0.028513257493149
 Root      2 :     3.807837309888831   Change is   -0.015063577073592
 Root      3 :     3.966328867749084   Change is   -0.044604623407180
 Root      4 :     4.676938762440781   Change is   -0.049106691553251
 Iteration     4 Dimension    40 NMult    32 NNew      8
 CISAX will form     8 AO SS matrices at one time.
 NMat=     8 NSing=     8 JSym2X= 0.
 Root      1 not converged, maximum delta is    0.007149051569077
 Root      2 not converged, maximum delta is    0.004324520709634
 Root      3 not converged, maximum delta is    0.017774488129904
 Root      4 not converged, maximum delta is    0.010467180469710
 Excitation Energies [eV] at current iteration:
 Root      1 :     3.437980781645669   Change is   -0.003857817224958
 Root      2 :     3.806806892312629   Change is   -0.001030417576202
 Root      3 :     3.956727735059578   Change is   -0.009601132689505
 Root      4 :     4.671857330446168   Change is   -0.005081431994613
 Iteration     5 Dimension    48 NMult    40 NNew      8
 CISAX will form     8 AO SS matrices at one time.
 NMat=     8 NSing=     8 JSym2X= 0.
 Root      1 not converged, maximum delta is    0.001842447887323
 Root      2 not converged, maximum delta is    0.001381189266916
 Root      3 not converged, maximum delta is    0.003193468228305
 Root      4 not converged, maximum delta is    0.001561779070721
 Excitation Energies [eV] at current iteration:
 Root      1 :     3.437700920156045   Change is   -0.000279861489624
 Root      2 :     3.806725795620476   Change is   -0.000081096692152
 Root      3 :     3.955793156530534   Change is   -0.000934578529045
 Root      4 :     4.671616915062848   Change is   -0.000240415383321
 Iteration     6 Dimension    56 NMult    48 NNew      8
 CISAX will form     8 AO SS matrices at one time.
 NMat=     8 NSing=     8 JSym2X= 0.
 Root      1 has converged.
 Root      2 has converged.
 Root      3 has converged.
 Root      4 has converged.
 Excitation Energies [eV] at current iteration:
 Root      1 :     3.437677872842780   Change is   -0.000023047313266
 Root      2 :     3.806719326359485   Change is   -0.000006469260991
 Root      3 :     3.955713622778764   Change is   -0.000079533751769
 Root      4 :     4.671589204748741   Change is   -0.000027710314107
 Convergence achieved on expansion vectors.
 ***********************************************************************
 Excited states from <AA,BB:AA,BB> singles matrix:
 ***********************************************************************
 
 1PDM for each excited state written to RWF  633
 Ground to excited state transition densities written to RWF  633
 Ground to excited state transition electric dipole moments (Au):
       state          X           Y           Z        Dip. S.      Osc.
         1        -3.5104     -0.3466      1.3044     14.1444      1.1913
         2        -0.2084     -0.0157      0.0710      0.0487      0.0045
         3        -0.7624      0.0240      0.3711      0.7195      0.0697
         4         0.3249      0.2891      0.1410      0.2090      0.0239
 Ground to excited state transition velocity dipole moments (Au):
       state          X           Y           Z        Dip. S.      Osc.
         1         0.4340      0.0399     -0.1651      0.2172      1.1460
         2         0.0282     -0.0001     -0.0089      0.0009      0.0042
         3         0.1070     -0.0005     -0.0475      0.0137      0.0629
         4        -0.0530     -0.0553     -0.0317      0.0069      0.0267
 Ground to excited state transition magnetic dipole moments (Au):
       state          X           Y           Z
         1         1.4866     -1.5348      3.5745
         2         0.0804      0.1484      0.6241
         3         0.6994     -1.2552      1.4845
         4        -0.0949      0.5533     -0.7772
 Ground to excited state transition velocity quadrupole moments (Au):
       state          XX          YY          ZZ          XY          XZ          YZ
         1         4.6481     -0.5630      1.4993     -2.6399     -2.7594      0.9488
         2         0.3521      0.0088      0.0712     -0.1910     -0.1877      0.0653
         3        -0.8868      0.0265      0.0593     -0.7808      0.2361      0.4150
         4        -0.2091      0.8343      0.0759      0.4455      0.2854      0.3563
 <0|del|b> * <b|rxdel|0> + <0|del|b> * <b|delr+rdel|0>
 Rotatory Strengths (R) in cgs (10**-40 erg-esu-cm/Gauss)
       state          XX          YY          ZZ    R(velocity)    E-M Angle
         1      -295.3277     86.1487    174.2620    -11.6390       90.18
         2        -9.8117     -7.9192      1.0895     -5.5471       99.91
         3       -79.5954     28.2323     75.2174      7.9514       88.84
         4        -8.8971     51.2344    -46.3488     -1.3372       90.70
 1/2[<0|r|b>*<b|rxdel|0> + (<0|rxdel|b>*<b|r|0>)*]
 Rotatory Strengths (R) in cgs (10**-40 erg-esu-cm/Gauss)
       state          XX          YY          ZZ     R(length)
         1      3690.3145   -376.1961  -3297.3282      5.5967
         2        11.8540      1.6462    -31.3359     -5.9453
         3       377.0762     21.3363   -389.5530      2.9531
         4        21.7907   -113.1397     77.4976     -4.6171
  1/2[<0|del|b>*<b|r|0> + (<0|r|b>*<b|del|0>)*] (Au)
       state          X           Y           Z        Dip. S.   Osc.(frdel)
         1        -1.5234     -0.0138     -0.2154      1.7525      1.1684
         2        -0.0059      0.0000     -0.0006      0.0065      0.0043
         3        -0.0816      0.0000     -0.0176      0.0992      0.0661
         4        -0.0172     -0.0160     -0.0045      0.0377      0.0251

 Excitation energies and oscillator strengths:
 
 Excited state symmetry could not be determined.
 Excited State   1:      Singlet-?Sym    3.4377 eV  360.66 nm  f=1.1913  <S**2>=0.000
      70 -> 72        -0.17185
      70 -> 73         0.13999
      71 -> 72         0.65243
 This state for optimization and/or second-order correction.
 Total Energy, E(TD-HF/TD-KS) =  -862.818908580    
 Copying the excited state density for this state as the 1-particle RhoCI density.
 
 Excited state symmetry could not be determined.
 Excited State   2:      Singlet-?Sym    3.8067 eV  325.70 nm  f=0.0045  <S**2>=0.000
      68 -> 72         0.66504
      68 -> 73        -0.14455
      68 -> 76         0.10759
 
 Excited state symmetry could not be determined.
 Excited State   3:      Singlet-?Sym    3.9557 eV  313.43 nm  f=0.0697  <S**2>=0.000
      70 -> 72         0.63404
      70 -> 73        -0.16494
      71 -> 72         0.17984
      71 -> 73         0.13101
 
 Excited state symmetry could not be determined.
 Excited State   4:      Singlet-?Sym    4.6716 eV  265.40 nm  f=0.0239  <S**2>=0.000
      67 -> 72         0.32719
      67 -> 73         0.15876
      70 -> 74         0.13726
      71 -> 73         0.16767
      71 -> 74         0.54786
 SavETr:  write IOETrn=   770 NScale= 10 NData=  16 NLR=1 NState=    4 LETran=      82.
 Leave Link  914 at Mon Nov  6 20:54:35 2017, MaxMem=  3758096384 cpu:       611.5
 (Enter /share/apps/gaussian/g09_D01/g09/l601.exe)
 Copying SCF densities to generalized density rwf, IOpCl= 0 IROHF=0.

 **********************************************************************

            Population analysis using the SCF density.

 **********************************************************************

 Alpha  occ. eigenvalues --  -19.25852 -19.25387 -14.49438 -10.38834 -10.36251
 Alpha  occ. eigenvalues --  -10.35902 -10.34761 -10.34741 -10.32558 -10.31730
 Alpha  occ. eigenvalues --  -10.31627 -10.30876 -10.30872 -10.30833 -10.30659
 Alpha  occ. eigenvalues --  -10.30578 -10.30205 -10.29907 -10.29162 -10.28829
 Alpha  occ. eigenvalues --   -1.13816  -1.09945  -1.07359  -0.96276  -0.94547
 Alpha  occ. eigenvalues --   -0.90168  -0.86500  -0.86332  -0.83996  -0.83661
 Alpha  occ. eigenvalues --   -0.82574  -0.78661  -0.73827  -0.71429  -0.70665
 Alpha  occ. eigenvalues --   -0.68242  -0.67077  -0.63792  -0.62706  -0.60432
 Alpha  occ. eigenvalues --   -0.58832  -0.58137  -0.57255  -0.56880  -0.55018
 Alpha  occ. eigenvalues --   -0.54516  -0.53313  -0.52027  -0.51715  -0.51149
 Alpha  occ. eigenvalues --   -0.50584  -0.50118  -0.49933  -0.49537  -0.48237
 Alpha  occ. eigenvalues --   -0.47343  -0.46386  -0.45752  -0.45273  -0.45088
 Alpha  occ. eigenvalues --   -0.44296  -0.42002  -0.41124  -0.40691  -0.40473
 Alpha  occ. eigenvalues --   -0.34245  -0.34060  -0.32957  -0.32484  -0.28265
 Alpha  occ. eigenvalues --   -0.26097
 Alpha virt. eigenvalues --   -0.01676   0.05143   0.06364   0.09165   0.11686
 Alpha virt. eigenvalues --    0.15168   0.16233   0.17116   0.17628   0.18790
 Alpha virt. eigenvalues --    0.19120   0.19985   0.22288   0.22921   0.23548
 Alpha virt. eigenvalues --    0.23811   0.23999   0.24789   0.25202   0.25766
 Alpha virt. eigenvalues --    0.26372   0.27264   0.27882   0.28049   0.29282
 Alpha virt. eigenvalues --    0.31216   0.32258   0.32369   0.33744   0.34978
 Alpha virt. eigenvalues --    0.37654   0.37950   0.40134   0.40710   0.41740
 Alpha virt. eigenvalues --    0.42247   0.43339   0.45364   0.47882   0.48570
 Alpha virt. eigenvalues --    0.52708   0.52960   0.56190   0.56906   0.58338
 Alpha virt. eigenvalues --    0.59149   0.59483   0.60174   0.60785   0.61090
 Alpha virt. eigenvalues --    0.62394   0.63388   0.63578   0.64741   0.65255
 Alpha virt. eigenvalues --    0.65723   0.66309   0.66600   0.67105   0.67218
 Alpha virt. eigenvalues --    0.67568   0.68755   0.68990   0.69685   0.70285
 Alpha virt. eigenvalues --    0.70571   0.71087   0.71694   0.72590   0.72842
 Alpha virt. eigenvalues --    0.73790   0.74437   0.75739   0.77032   0.78321
 Alpha virt. eigenvalues --    0.78867   0.80648   0.80805   0.82642   0.82990
 Alpha virt. eigenvalues --    0.86915   0.87459   0.87548   0.88836   0.90218
 Alpha virt. eigenvalues --    0.90500   0.91218   0.91832   0.93481   0.93978
 Alpha virt. eigenvalues --    0.94333   0.94935   0.95433   0.96170   0.97675
 Alpha virt. eigenvalues --    0.98566   0.99332   1.00906   1.01921   1.01971
 Alpha virt. eigenvalues --    1.03102   1.03347   1.03795   1.05308   1.05790
 Alpha virt. eigenvalues --    1.07269   1.07857   1.08007   1.09425   1.10925
 Alpha virt. eigenvalues --    1.11496   1.12342   1.13639   1.14598   1.15914
 Alpha virt. eigenvalues --    1.17112   1.19673   1.20842   1.22388   1.25813
 Alpha virt. eigenvalues --    1.26573   1.27482   1.28375   1.31579   1.31929
 Alpha virt. eigenvalues --    1.32611   1.33587   1.36514   1.37756   1.38073
 Alpha virt. eigenvalues --    1.39030   1.40792   1.41594   1.44200   1.44400
 Alpha virt. eigenvalues --    1.46840   1.48406   1.48708   1.49919   1.50980
 Alpha virt. eigenvalues --    1.53013   1.53677   1.53715   1.55474   1.56137
 Alpha virt. eigenvalues --    1.57085   1.58546   1.58634   1.59537   1.62518
 Alpha virt. eigenvalues --    1.65280   1.66560   1.69001   1.73318   1.81176
 Alpha virt. eigenvalues --    1.83137   1.83418   1.84311   1.86356   1.87273
 Alpha virt. eigenvalues --    1.87754   1.89329   1.89723   1.90133   1.92971
 Alpha virt. eigenvalues --    1.93530   1.95002   1.95064   1.97759   1.98290
 Alpha virt. eigenvalues --    1.99183   1.99994   2.02581   2.03690   2.04150
 Alpha virt. eigenvalues --    2.05003   2.06676   2.07614   2.08171   2.09137
 Alpha virt. eigenvalues --    2.09725   2.10504   2.13693   2.15911   2.17336
 Alpha virt. eigenvalues --    2.17986   2.18870   2.20159   2.21830   2.22879
 Alpha virt. eigenvalues --    2.23021   2.24452   2.26383   2.28527   2.29870
 Alpha virt. eigenvalues --    2.30446   2.32049   2.34049   2.35811   2.36958
 Alpha virt. eigenvalues --    2.38061   2.39859   2.39995   2.40467   2.40928
 Alpha virt. eigenvalues --    2.45564   2.46327   2.48691   2.50085   2.55038
 Alpha virt. eigenvalues --    2.56881   2.59776   2.62208   2.62514   2.63504
 Alpha virt. eigenvalues --    2.63859   2.66759   2.68483   2.68910   2.70338
 Alpha virt. eigenvalues --    2.71548   2.73604   2.76513   2.78057   2.78556
 Alpha virt. eigenvalues --    2.80436   2.83287   2.86787   2.89946   2.92743
 Alpha virt. eigenvalues --    2.94928   2.98353   2.99302   3.00947   3.05061
 Alpha virt. eigenvalues --    3.06737   3.14339   3.17995   3.23201   3.32331
 Alpha virt. eigenvalues --    3.38191   3.50505   3.53274   4.10679   4.11605
 Alpha virt. eigenvalues --    4.13960   4.18198   4.19952   4.21536   4.22506
 Alpha virt. eigenvalues --    4.24079   4.30079   4.34204   4.35469   4.39895
 Alpha virt. eigenvalues --    4.42344   4.44806   4.48749   4.54012   4.60313
 Alpha virt. eigenvalues --    4.77742   4.85177   4.89103
          Condensed to atoms (all electrons):
               1          2          3          4          5          6
     1  C    5.033079   0.523484   0.362177   0.530960  -0.047011  -0.073511
     2  C    0.523484   4.443338  -0.035373  -0.018864   0.530721   0.341499
     3  H    0.362177  -0.035373   0.541831  -0.032558   0.004111  -0.010318
     4  C    0.530960  -0.018864  -0.032558   4.957984  -0.041411   0.005123
     5  C   -0.047011   0.530721   0.004111  -0.041411   5.043973  -0.074576
     6  N   -0.073511   0.341499  -0.010318   0.005123  -0.074576   6.961296
     7  C   -0.031383  -0.022395   0.002526   0.535224  -0.033798   0.000303
     8  H   -0.038629   0.002836  -0.004491   0.359040   0.000338  -0.000096
     9  C   -0.045077  -0.017619   0.000457  -0.048926   0.513622   0.005120
    10  H    0.004181  -0.035287  -0.000119   0.000431   0.361208  -0.010420
    11  C    0.004792  -0.042490  -0.000072  -0.000085  -0.008110   0.298668
    12  C   -0.008011  -0.043459   0.007551   0.000043   0.004807   0.299271
    13  C    0.006830   0.000279  -0.000169  -0.057167   0.007144  -0.000001
    14  H    0.000459   0.002610   0.000014   0.004629  -0.034974  -0.000094
    15  H    0.000007  -0.004077  -0.000001  -0.000004   0.004236  -0.044680
    16  H   -0.000106   0.003257  -0.000002   0.000002   0.000473  -0.031169
    17  H   -0.000059  -0.003277  -0.000002   0.000001   0.002722  -0.045811
    18  H    0.003408  -0.004159  -0.000371   0.000156  -0.000011  -0.044318
    19  H    0.000491   0.003290   0.000156  -0.000004  -0.000109  -0.030971
    20  H    0.003253  -0.003613  -0.000143   0.000095  -0.000022  -0.046438
    21  C    0.000152   0.000014   0.000004  -0.011440  -0.000248   0.000000
    22  H   -0.000100  -0.000006   0.000002   0.004634   0.000379   0.000000
    23  C   -0.000005   0.000000   0.000000   0.000451   0.000001   0.000000
    24  H    0.000182  -0.000009   0.000004   0.003563   0.000010   0.000000
    25  C    0.000000   0.000000   0.000000   0.000006   0.000000   0.000000
    26  O    0.000000   0.000000   0.000000   0.000005   0.000000   0.000000
    27  C    0.000000   0.000000   0.000000   0.000000   0.000000   0.000000
    28  C    0.000000   0.000000   0.000000   0.000004   0.000000   0.000000
    29  H    0.000000   0.000000   0.000000   0.000000   0.000000   0.000000
    30  C    0.000000   0.000000   0.000000   0.000000   0.000000   0.000000
    31  O    0.000000   0.000000   0.000000   0.000000   0.000000   0.000000
    32  C    0.000000   0.000000   0.000000   0.000000   0.000000   0.000000
    33  H    0.000000   0.000000   0.000000  -0.000001   0.000000   0.000000
    34  C    0.000000   0.000000   0.000000   0.000000   0.000000   0.000000
    35  H    0.000000   0.000000   0.000000   0.000000   0.000000   0.000000
    36  H    0.000000   0.000000   0.000000   0.000000   0.000000   0.000000
    37  H    0.000000   0.000000   0.000000   0.000000   0.000000   0.000000
               7          8          9         10         11         12
     1  C   -0.031383  -0.038629  -0.045077   0.004181   0.004792  -0.008011
     2  C   -0.022395   0.002836  -0.017619  -0.035287  -0.042490  -0.043459
     3  H    0.002526  -0.004491   0.000457  -0.000119  -0.000072   0.007551
     4  C    0.535224   0.359040  -0.048926   0.000431  -0.000085   0.000043
     5  C   -0.033798   0.000338   0.513622   0.361208  -0.008110   0.004807
     6  N    0.000303  -0.000096   0.005120  -0.010420   0.298668   0.299271
     7  C    4.676860  -0.032371   0.521205   0.002429   0.000002   0.000004
     8  H   -0.032371   0.541741   0.005069   0.000013   0.000002  -0.000007
     9  C    0.521205   0.005069   4.981973  -0.030982   0.000025  -0.000089
    10  H    0.002429   0.000013  -0.030982   0.540077   0.007409  -0.000071
    11  C    0.000002   0.000002   0.000025   0.007409   5.010947  -0.051765
    12  C    0.000004  -0.000007  -0.000089  -0.000071  -0.051765   5.011026
    13  C    0.382941  -0.010252  -0.038552  -0.000158   0.000000   0.000000
    14  H   -0.039672  -0.000140   0.363174  -0.004238  -0.000005   0.000002
    15  H   -0.000008   0.000000   0.000141  -0.000482   0.379555   0.002802
    16  H    0.000000   0.000000  -0.000004   0.000148   0.382667  -0.005986
    17  H   -0.000006   0.000000   0.000065  -0.000021   0.381077   0.002581
    18  H   -0.000012  -0.000001  -0.000002   0.000000   0.002818   0.380270
    19  H    0.000000   0.000000   0.000002  -0.000002  -0.005989   0.382616
    20  H   -0.000003  -0.000003   0.000000  -0.000002   0.002569   0.380536
    21  C   -0.033320   0.004532   0.005901   0.000002   0.000000   0.000000
    22  H   -0.043072  -0.000042  -0.005414  -0.000011   0.000000   0.000000
    23  C    0.002976   0.000117  -0.000224   0.000000   0.000000   0.000000
    24  H   -0.008358   0.003621   0.000105   0.000000   0.000000   0.000000
    25  C   -0.000063   0.000015  -0.000001   0.000000   0.000000   0.000000
    26  O    0.001042   0.000001  -0.000025   0.000000   0.000000   0.000000
    27  C    0.000000   0.000000   0.000000   0.000000   0.000000   0.000000
    28  C   -0.000014  -0.000023   0.000000   0.000000   0.000000   0.000000
    29  H   -0.000001   0.000000   0.000000   0.000000   0.000000   0.000000
    30  C    0.000000   0.000000   0.000000   0.000000   0.000000   0.000000
    31  O    0.000000   0.000000   0.000000   0.000000   0.000000   0.000000
    32  C    0.000000   0.000000   0.000000   0.000000   0.000000   0.000000
    33  H   -0.000026  -0.000001   0.000000   0.000000   0.000000   0.000000
    34  C    0.000000   0.000000   0.000000   0.000000   0.000000   0.000000
    35  H    0.000000   0.000000   0.000000   0.000000   0.000000   0.000000
    36  H    0.000000   0.000000   0.000000   0.000000   0.000000   0.000000
    37  H    0.000000   0.000000   0.000000   0.000000   0.000000   0.000000
              13         14         15         16         17         18
     1  C    0.006830   0.000459   0.000007  -0.000106  -0.000059   0.003408
     2  C    0.000279   0.002610  -0.004077   0.003257  -0.003277  -0.004159
     3  H   -0.000169   0.000014  -0.000001  -0.000002  -0.000002  -0.000371
     4  C   -0.057167   0.004629  -0.000004   0.000002   0.000001   0.000156
     5  C    0.007144  -0.034974   0.004236   0.000473   0.002722  -0.000011
     6  N   -0.000001  -0.000094  -0.044680  -0.031169  -0.045811  -0.044318
     7  C    0.382941  -0.039672  -0.000008   0.000000  -0.000006  -0.000012
     8  H   -0.010252  -0.000140   0.000000   0.000000   0.000000  -0.000001
     9  C   -0.038552   0.363174   0.000141  -0.000004   0.000065  -0.000002
    10  H   -0.000158  -0.004238  -0.000482   0.000148  -0.000021   0.000000
    11  C    0.000000  -0.000005   0.379555   0.382667   0.381077   0.002818
    12  C    0.000000   0.000002   0.002802  -0.005986   0.002581   0.380270
    13  C    5.038720  -0.005006   0.000000   0.000000   0.000000   0.000000
    14  H   -0.005006   0.530089  -0.000001   0.000000  -0.000001   0.000000
    15  H    0.000000  -0.000001   0.543833  -0.023449  -0.044344  -0.000297
    16  H    0.000000   0.000000  -0.023449   0.511697  -0.026036   0.000088
    17  H    0.000000  -0.000001  -0.044344  -0.026036   0.547548   0.000399
    18  H    0.000000   0.000000  -0.000297   0.000088   0.000399   0.545103
    19  H    0.000000   0.000000   0.000118   0.005065   0.000255  -0.023840
    20  H    0.000000   0.000000   0.000419   0.000294  -0.000324  -0.044801
    21  C    0.503776   0.000228   0.000000   0.000000   0.000000   0.000000
    22  H    0.368239   0.005542   0.000000   0.000000   0.000000   0.000000
    23  C   -0.003530  -0.000003   0.000000   0.000000   0.000000   0.000000
    24  H   -0.044145   0.000006   0.000000   0.000000   0.000000   0.000000
    25  C    0.010067   0.000000   0.000000   0.000000   0.000000   0.000000
    26  O    0.003214  -0.000004   0.000000   0.000000   0.000000   0.000000
    27  C   -0.000182   0.000000   0.000000   0.000000   0.000000   0.000000
    28  C    0.000170   0.000000   0.000000   0.000000   0.000000   0.000000
    29  H   -0.000052   0.000000   0.000000   0.000000   0.000000   0.000000
    30  C    0.000000   0.000000   0.000000   0.000000   0.000000   0.000000
    31  O    0.000021   0.000000   0.000000   0.000000   0.000000   0.000000
    32  C   -0.000009   0.000000   0.000000   0.000000   0.000000   0.000000
    33  H    0.000371   0.000000   0.000000   0.000000   0.000000   0.000000
    34  C    0.000001   0.000000   0.000000   0.000000   0.000000   0.000000
    35  H    0.000000   0.000000   0.000000   0.000000   0.000000   0.000000
    36  H    0.000000   0.000000   0.000000   0.000000   0.000000   0.000000
    37  H    0.000000   0.000000   0.000000   0.000000   0.000000   0.000000
              19         20         21         22         23         24
     1  C    0.000491   0.003253   0.000152  -0.000100  -0.000005   0.000182
     2  C    0.003290  -0.003613   0.000014  -0.000006   0.000000  -0.000009
     3  H    0.000156  -0.000143   0.000004   0.000002   0.000000   0.000004
     4  C   -0.000004   0.000095  -0.011440   0.004634   0.000451   0.003563
     5  C   -0.000109  -0.000022  -0.000248   0.000379   0.000001   0.000010
     6  N   -0.030971  -0.046438   0.000000   0.000000   0.000000   0.000000
     7  C    0.000000  -0.000003  -0.033320  -0.043072   0.002976  -0.008358
     8  H    0.000000  -0.000003   0.004532  -0.000042   0.000117   0.003621
     9  C    0.000002   0.000000   0.005901  -0.005414  -0.000224   0.000105
    10  H   -0.000002  -0.000002   0.000002  -0.000011   0.000000   0.000000
    11  C   -0.005989   0.002569   0.000000   0.000000   0.000000   0.000000
    12  C    0.382616   0.380536   0.000000   0.000000   0.000000   0.000000
    13  C    0.000000   0.000000   0.503776   0.368239  -0.003530  -0.044145
    14  H    0.000000   0.000000   0.000228   0.005542  -0.000003   0.000006
    15  H    0.000118   0.000419   0.000000   0.000000   0.000000   0.000000
    16  H    0.005065   0.000294   0.000000   0.000000   0.000000   0.000000
    17  H    0.000255  -0.000324   0.000000   0.000000   0.000000   0.000000
    18  H   -0.023840  -0.044801   0.000000   0.000000   0.000000   0.000000
    19  H    0.511608  -0.025931   0.000000   0.000000   0.000000   0.000000
    20  H   -0.025931   0.550005   0.000000   0.000000   0.000000   0.000000
    21  C    0.000000   0.000000   5.256232  -0.052726   0.390951   0.358722
    22  H    0.000000   0.000000  -0.052726   0.506166  -0.005895   0.004253
    23  C    0.000000   0.000000   0.390951  -0.005895   4.526088  -0.030360
    24  H    0.000000   0.000000   0.358722   0.004253  -0.030360   0.549237
    25  C    0.000000   0.000000  -0.089323   0.000877   0.340743  -0.008796
    26  O    0.000000   0.000000  -0.099632   0.014840   0.434860   0.002449
    27  C    0.000000   0.000000   0.006350  -0.000001  -0.037420  -0.000047
    28  C    0.000000   0.000000  -0.004418  -0.000016  -0.048682   0.003669
    29  H    0.000000   0.000000   0.002500  -0.000068  -0.008803  -0.000075
    30  C    0.000000   0.000000  -0.000199   0.000000   0.005271   0.000006
    31  O    0.000000   0.000000  -0.000079   0.000012   0.000349   0.000004
    32  C    0.000000   0.000000   0.000295   0.000000   0.004641   0.000464
    33  H    0.000000   0.000000   0.002813  -0.000001  -0.009016   0.005037
    34  C    0.000000   0.000000   0.000002   0.000000   0.000051  -0.000008
    35  H    0.000000   0.000000   0.000001   0.000000  -0.000088   0.000000
    36  H    0.000000   0.000000   0.000010   0.000000  -0.000111  -0.000003
    37  H    0.000000   0.000000   0.000000   0.000000   0.000004   0.000000
              25         26         27         28         29         30
     1  C    0.000000   0.000000   0.000000   0.000000   0.000000   0.000000
     2  C    0.000000   0.000000   0.000000   0.000000   0.000000   0.000000
     3  H    0.000000   0.000000   0.000000   0.000000   0.000000   0.000000
     4  C    0.000006   0.000005   0.000000   0.000004   0.000000   0.000000
     5  C    0.000000   0.000000   0.000000   0.000000   0.000000   0.000000
     6  N    0.000000   0.000000   0.000000   0.000000   0.000000   0.000000
     7  C   -0.000063   0.001042   0.000000  -0.000014  -0.000001   0.000000
     8  H    0.000015   0.000001   0.000000  -0.000023   0.000000   0.000000
     9  C   -0.000001  -0.000025   0.000000   0.000000   0.000000   0.000000
    10  H    0.000000   0.000000   0.000000   0.000000   0.000000   0.000000
    11  C    0.000000   0.000000   0.000000   0.000000   0.000000   0.000000
    12  C    0.000000   0.000000   0.000000   0.000000   0.000000   0.000000
    13  C    0.010067   0.003214  -0.000182   0.000170  -0.000052   0.000000
    14  H    0.000000  -0.000004   0.000000   0.000000   0.000000   0.000000
    15  H    0.000000   0.000000   0.000000   0.000000   0.000000   0.000000
    16  H    0.000000   0.000000   0.000000   0.000000   0.000000   0.000000
    17  H    0.000000   0.000000   0.000000   0.000000   0.000000   0.000000
    18  H    0.000000   0.000000   0.000000   0.000000   0.000000   0.000000
    19  H    0.000000   0.000000   0.000000   0.000000   0.000000   0.000000
    20  H    0.000000   0.000000   0.000000   0.000000   0.000000   0.000000
    21  C   -0.089323  -0.099632   0.006350  -0.004418   0.002500  -0.000199
    22  H    0.000877   0.014840  -0.000001  -0.000016  -0.000068   0.000000
    23  C    0.340743   0.434860  -0.037420  -0.048682  -0.008803   0.005271
    24  H   -0.008796   0.002449  -0.000047   0.003669  -0.000075   0.000006
    25  C    5.149165  -0.071926   0.432979   0.485219  -0.013499  -0.057269
    26  O   -0.071926   8.306822   0.000052   0.004011   0.095101   0.000580
    27  C    0.432979   0.000052   4.534946  -0.035154  -0.022697   0.521354
    28  C    0.485219   0.004011  -0.035154   4.990289  -0.000059  -0.036181
    29  H   -0.013499   0.095101  -0.022697  -0.000059   0.269964   0.003762
    30  C   -0.057269   0.000580   0.521354  -0.036181   0.003762   5.001379
    31  O   -0.064188  -0.071606   0.334557   0.004275   0.194606  -0.058527
    32  C   -0.026106  -0.000026  -0.033965   0.546311   0.000000  -0.039835
    33  H   -0.034980  -0.000011   0.002707   0.358662  -0.000002   0.000370
    34  C   -0.028261  -0.000013  -0.019947  -0.037857  -0.000148   0.543358
    35  H    0.005655   0.000013  -0.028801   0.000159   0.000031   0.357618
    36  H    0.002510   0.000000   0.000594  -0.034043   0.000000   0.003380
    37  H    0.000421   0.000000   0.003110   0.004028   0.000002  -0.034168
              31         32         33         34         35         36
     1  C    0.000000   0.000000   0.000000   0.000000   0.000000   0.000000
     2  C    0.000000   0.000000   0.000000   0.000000   0.000000   0.000000
     3  H    0.000000   0.000000   0.000000   0.000000   0.000000   0.000000
     4  C    0.000000   0.000000  -0.000001   0.000000   0.000000   0.000000
     5  C    0.000000   0.000000   0.000000   0.000000   0.000000   0.000000
     6  N    0.000000   0.000000   0.000000   0.000000   0.000000   0.000000
     7  C    0.000000   0.000000  -0.000026   0.000000   0.000000   0.000000
     8  H    0.000000   0.000000  -0.000001   0.000000   0.000000   0.000000
     9  C    0.000000   0.000000   0.000000   0.000000   0.000000   0.000000
    10  H    0.000000   0.000000   0.000000   0.000000   0.000000   0.000000
    11  C    0.000000   0.000000   0.000000   0.000000   0.000000   0.000000
    12  C    0.000000   0.000000   0.000000   0.000000   0.000000   0.000000
    13  C    0.000021  -0.000009   0.000371   0.000001   0.000000   0.000000
    14  H    0.000000   0.000000   0.000000   0.000000   0.000000   0.000000
    15  H    0.000000   0.000000   0.000000   0.000000   0.000000   0.000000
    16  H    0.000000   0.000000   0.000000   0.000000   0.000000   0.000000
    17  H    0.000000   0.000000   0.000000   0.000000   0.000000   0.000000
    18  H    0.000000   0.000000   0.000000   0.000000   0.000000   0.000000
    19  H    0.000000   0.000000   0.000000   0.000000   0.000000   0.000000
    20  H    0.000000   0.000000   0.000000   0.000000   0.000000   0.000000
    21  C   -0.000079   0.000295   0.002813   0.000002   0.000001   0.000010
    22  H    0.000012   0.000000  -0.000001   0.000000   0.000000   0.000000
    23  C    0.000349   0.004641  -0.009016   0.000051  -0.000088  -0.000111
    24  H    0.000004   0.000464   0.005037  -0.000008   0.000000  -0.000003
    25  C   -0.064188  -0.026106  -0.034980  -0.028261   0.005655   0.002510
    26  O   -0.071606  -0.000026  -0.000011  -0.000013   0.000013   0.000000
    27  C    0.334557  -0.033965   0.002707  -0.019947  -0.028801   0.000594
    28  C    0.004275   0.546311   0.358662  -0.037857   0.000159  -0.034043
    29  H    0.194606   0.000000  -0.000002  -0.000148   0.000031   0.000000
    30  C   -0.058527  -0.039835   0.000370   0.543358   0.357618   0.003380
    31  O    8.340509   0.000017  -0.000041   0.003252   0.000307   0.000001
    32  C    0.000017   4.906241  -0.037126   0.531958   0.003742   0.370240
    33  H   -0.000041  -0.037126   0.545961   0.004050   0.000013  -0.004056
    34  C    0.003252   0.531958   0.004050   4.867950  -0.038386  -0.036572
    35  H    0.000307   0.003742   0.000013  -0.038386   0.523095  -0.000120
    36  H    0.000001   0.370240  -0.004056  -0.036572  -0.000120   0.539286
    37  H   -0.000051  -0.037609  -0.000165   0.367054  -0.004319  -0.003704
              37
     1  C    0.000000
     2  C    0.000000
     3  H    0.000000
     4  C    0.000000
     5  C    0.000000
     6  N    0.000000
     7  C    0.000000
     8  H    0.000000
     9  C    0.000000
    10  H    0.000000
    11  C    0.000000
    12  C    0.000000
    13  C    0.000000
    14  H    0.000000
    15  H    0.000000
    16  H    0.000000
    17  H    0.000000
    18  H    0.000000
    19  H    0.000000
    20  H    0.000000
    21  C    0.000000
    22  H    0.000000
    23  C    0.000004
    24  H    0.000000
    25  C    0.000421
    26  O    0.000000
    27  C    0.003110
    28  C    0.004028
    29  H    0.000002
    30  C   -0.034168
    31  O   -0.000051
    32  C   -0.037609
    33  H   -0.000165
    34  C    0.367054
    35  H   -0.004319
    36  H   -0.003704
    37  H    0.533632
 Mulliken charges:
               1
     1  C   -0.229563
     2  C    0.379299
     3  H    0.164786
     4  C   -0.191892
     5  C   -0.233477
     6  N   -0.498878
     7  C    0.118992
     8  H    0.168730
     9  C   -0.209946
    10  H    0.165894
    11  C   -0.362016
    12  C   -0.362121
    13  C   -0.162550
    14  H    0.177385
    15  H    0.186232
    16  H    0.183060
    17  H    0.185234
    18  H    0.185570
    19  H    0.183247
    20  H    0.184109
    21  C   -0.241101
    22  H    0.202407
    23  C    0.437633
    24  H    0.160466
    25  C   -0.033244
    26  O   -0.619747
    27  C    0.341563
    28  C   -0.200349
    29  H    0.479439
    30  C   -0.210902
    31  O   -0.683420
    32  C   -0.189235
    33  H    0.165441
    34  C   -0.156482
    35  H    0.181082
    36  H    0.162588
    37  H    0.171766
 Sum of Mulliken charges =   0.00000
 Mulliken charges with hydrogens summed into heavy atoms:
               1
     1  C   -0.064777
     2  C    0.379299
     4  C   -0.023162
     5  C   -0.067583
     6  N   -0.498878
     7  C    0.118992
     9  C   -0.032562
    11  C    0.192510
    12  C    0.190805
    13  C    0.039856
    21  C   -0.080634
    23  C    0.437633
    25  C   -0.033244
    26  O   -0.619747
    27  C    0.341563
    28  C   -0.034907
    30  C   -0.029820
    31  O   -0.203982
    32  C   -0.026647
    34  C    0.015284
 Electronic spatial extent (au):  <R**2>=          24575.2279
 Charge=              0.0000 electrons
 Dipole moment (field-independent basis, Debye):
    X=             -7.1711    Y=              1.3604    Z=              5.7829  Tot=              9.3122
 Quadrupole moment (field-independent basis, Debye-Ang):
   XX=           -127.6818   YY=           -124.4973   ZZ=           -148.1144
   XY=             40.7959   XZ=             32.2562   YZ=            -21.1552
 Traceless Quadrupole moment (field-independent basis, Debye-Ang):
   XX=              5.7494   YY=              8.9338   ZZ=            -14.6832
   XY=             40.7959   XZ=             32.2562   YZ=            -21.1552
 Octapole moment (field-independent basis, Debye-Ang**2):
  XXX=          -1105.5496  YYY=           1307.1232  ZZZ=           1057.2946  XYY=           -540.4887
  XXY=            553.6236  XXZ=            475.4847  XZZ=           -537.2663  YZZ=            550.4448
  YYZ=            369.5710  XYZ=           -157.4878
 Hexadecapole moment (field-independent basis, Debye-Ang**3):
 XXXX=         -16285.6540 YYYY=         -10186.4484 ZZZZ=          -7512.1677 XXXY=           4168.6260
 XXXZ=           5197.8352 YYYX=           3932.5664 YYYZ=          -3517.8511 ZZZX=           5495.7799
 ZZZY=          -4007.8950 XXYY=          -5230.5485 XXZZ=          -5072.1268 YYZZ=          -3268.1061
 XXYZ=          -2019.4279 YYXZ=           2212.7551 ZZXY=           1886.2547
 N-N= 1.358388067623D+03 E-N=-4.721579203707D+03  KE= 8.546410999410D+02
 Leave Link  601 at Mon Nov  6 20:54:35 2017, MaxMem=  3758096384 cpu:         0.2
 (Enter /share/apps/gaussian/g09_D01/g09/l9999.exe)
 1\1\GINC-NXN36\SP\RwB97XD TD-FC\6-31G(d)\C17H17N1O2\BTX008\06-Nov-2017
 \0\\#p wb97xd 6-31G* td=(nstates=4) nosymm\\Title\\0,1\C,0,-0.045604,-
 3.212643,-0.673042\C,0,-1.163557,-4.037551,-0.999057\H,0,-0.121291,-2.
 475288,0.121883\C,0,1.146608,-3.335524,-1.348586\C,0,-0.997931,-4.9749
 53,-2.055672\N,0,-2.337452,-3.93316,-0.324579\C,0,1.320601,-4.270503,-
 2.399224\H,0,1.971105,-2.682196,-1.060472\C,0,0.202155,-5.074774,-2.72
 5295\H,0,-1.826104,-5.611893,-2.356233\C,0,-3.451039,-4.817588,-0.6382
 86\C,0,-2.482782,-2.951131,0.738607\C,0,2.5213,-4.396929,-3.164451\H,0
 ,0.299534,-5.792287,-3.54133\H,0,-3.150286,-5.872565,-0.549647\H,0,-4.
 268925,-4.626441,0.063239\H,0,-3.818958,-4.648925,-1.662177\H,0,-2.290
 162,-1.933406,0.365237\H,0,-3.502453,-2.991283,1.132588\H,0,-1.783201,
 -3.152381,1.563457\C,0,3.704177,-3.730044,-2.976341\H,0,2.47843,-5.091
 951,-4.010014\C,0,4.824246,-3.904072,-3.862622\H,0,3.810173,-3.042685,
 -2.139497\C,0,6.116034,-3.241308,-3.594826\O,0,4.72679,-4.644034,-4.90
 8669\C,0,7.196441,-3.444502,-4.505463\C,0,6.35306,-2.418884,-2.472996\
 H,0,6.047681,-4.528914,-5.530262\C,0,8.44931,-2.862065,-4.256098\O,0,7
 .039043,-4.198267,-5.611204\C,0,7.588797,-1.834009,-2.241935\H,0,5.552
 651,-2.221827,-1.761605\C,0,8.641937,-2.065551,-3.137064\H,0,9.257308,
 -3.069135,-4.95777\H,0,7.737617,-1.196134,-1.371176\H,0,9.619574,-1.61
 9592,-2.947297\\Version=ES64L-G09RevD.01\HF=-862.9452409\RMSD=7.677e-0
 9\PG=C01 [X(C17H17N1O2)]\\@


 THE MORE POWERFUL THE METHOD, THE MORE CATASTROPHIC THE ERRORS.
     -- M.D. KAMEN
 Job cpu time:       0 days  0 hours 13 minutes 39.9 seconds.
 File lengths (MBytes):  RWF=    231 Int=      0 D2E=      0 Chk=     82 Scr=      1
 Normal termination of Gaussian 09 at Mon Nov  6 20:54:35 2017.
