
     Program PWSCF v.5.0.2 (svn rev. 9392) starts on 14Dec2016 at 10:21:26 

     This program is part of the open-source Quantum ESPRESSO suite
     for quantum simulation of materials; please cite
         "P. Giannozzi et al., J. Phys.:Condens. Matter 21 395502 (2009);
          URL http://www.quantum-espresso.org", 
     in publications or presentations arising from this work. More details at
     http://www.quantum-espresso.org/quote.php

     Parallel version (MPI), running on     1 processors

     Current dimensions of program PWSCF are:
     Max number of different atomic species (ntypx) = 10
     Max number of k-points (npk) =  40000
     Max angular momentum in pseudopotentials (lmaxx) =  3
     Waiting for input...
     Reading input from standard input

     IMPORTANT: XC functional enforced from input :
     Exchange-correlation      = PBE ( 1 4 3 4 0)
     EXX-fraction              =        0.00
     Any further DFT definition will be discarded
     Please, verify this is what you really want

               file C.pbe-rrkjus.UPF: wavefunction(s)  2S 2P renormalized
               file H.pbe-rrkjus.UPF: wavefunction(s)  1S renormalized
               file O.pbe-rrkjus.UPF: wavefunction(s)  2S renormalized
               file N.pbe-rrkjus.UPF: wavefunction(s)  2S renormalized

     -------------------------------------
     Parameters for Dispersion Correction:
     -------------------------------------
       atom      VdW radius       C_6     

        C          2.744         60.710
        H          1.892          4.857
        O          2.536         24.284
        N          2.640         42.670

     Subspace diagonalization in iterative solution of the eigenvalue problem:
     a serial algorithm will be used

 
     G-vector sticks info
     --------------------
     sticks:   dense  smooth     PW     G-vecs:    dense   smooth      PW
     Sum        4517    4517   1205               468863   468863   64939
 


     bravais-lattice index     =            0
     lattice parameter (alat)  =      17.8498  a.u.
     unit-cell volume          =   21126.1971 (a.u.)^3
     number of atoms/cell      =          328
     number of atomic types    =            4
     number of electrons       =       912.00
     number of Kohn-Sham states=          456
     kinetic-energy cutoff     =      30.0000  Ry
     charge density cutoff     =     120.0000  Ry
     convergence threshold     =      1.0E-07
     mixing beta               =       0.7000
     number of iterations used =            8  plain     mixing
     Exchange-correlation      = PBE ( 1 4 3 4 0)
     EXX-fraction              =        0.00
     nstep                     =           50


     celldm(1)=  17.849786  celldm(2)=   0.000000  celldm(3)=   0.000000
     celldm(4)=   0.000000  celldm(5)=   0.000000  celldm(6)=   0.000000

     crystal axes: (cart. coord. in units of alat)
               a(1) = (   1.000000   0.000000   0.000000 )  
               a(2) = (   0.429686   1.481886   0.000000 )  
               a(3) = (   0.338141   0.232509   2.506730 )  

     reciprocal axes: (cart. coord. in units 2 pi/alat)
               b(1) = (  1.000000 -0.289959 -0.107999 )  
               b(2) = (  0.000000  0.674816 -0.062592 )  
               b(3) = (  0.000000  0.000000  0.398926 )  


     PseudoPot. # 1 for C  read from file:
     /data/home/btx156/espresso/pseudo/C.pbe-rrkjus.UPF
     MD5 check sum: 00fb224312de0c5b6853bd333518df6f
     Pseudo is Ultrasoft, Zval =  4.0
     Generated by new atomic code, or converted to UPF format
     Using radial grid of  627 points,  4 beta functions with: 
                l(1) =   0
                l(2) =   0
                l(3) =   1
                l(4) =   1
     Q(r) pseudized with 0 coefficients 


     PseudoPot. # 2 for H  read from file:
     /data/home/btx156/espresso/pseudo/H.pbe-rrkjus.UPF
     MD5 check sum: 7cc9d459525c9a0585f487a71c3c9563
     Pseudo is Ultrasoft, Zval =  1.0
     Generated by new atomic code, or converted to UPF format
     Using radial grid of 1061 points,  2 beta functions with: 
                l(1) =   0
                l(2) =   0
     Q(r) pseudized with 0 coefficients 


     PseudoPot. # 3 for O  read from file:
     /data/home/btx156/espresso/pseudo/O.pbe-rrkjus.UPF
     MD5 check sum: 390ba29e75625707450f3bd3f0eb6be9
     Pseudo is Ultrasoft, Zval =  6.0
     Generated by new atomic code, or converted to UPF format
     Using radial grid of 1269 points,  4 beta functions with: 
                l(1) =   0
                l(2) =   0
                l(3) =   1
                l(4) =   1
     Q(r) pseudized with 0 coefficients 


     PseudoPot. # 4 for N  read from file:
     /data/home/btx156/espresso/pseudo/N.pbe-rrkjus.UPF
     MD5 check sum: 0c3fbe5807a93f9ba59d5a7019aa238b
     Pseudo is Ultrasoft, Zval =  5.0
     Generated by new atomic code, or converted to UPF format
     Using radial grid of 1257 points,  4 beta functions with: 
                l(1) =   0
                l(2) =   0
                l(3) =   1
                l(4) =   1
     Q(r) pseudized with 0 coefficients 


     atomic species   valence    mass     pseudopotential
        C              4.00    12.00000     C ( 1.00)
        H              1.00     1.00790     H ( 1.00)
        O              6.00    15.99940     O ( 1.00)
        N              5.00    14.00670     N ( 1.00)

      2 Sym. Ops., with inversion, found



   Cartesian axes

     site n.     atom                  positions (alat units)
         1           C   tau(   1) = (   1.1860479   0.4164221   1.9679700  )
         2           C   tau(   2) = (   0.5817796   1.2979723   0.5387602  )
         3           C   tau(   3) = (   0.3266678   0.3753733   1.9786938  )
         4           C   tau(   4) = (   1.4411597   1.3390213   0.5280365  )
         5           C   tau(   5) = (   0.4025826   0.3364695   1.8568592  )
         6           C   tau(   6) = (   1.3652449   1.3779251   0.6498711  )
         7           C   tau(   7) = (   0.3344628   0.3370772   1.7264557  )
         8           C   tau(   8) = (   1.4333647   1.3773174   0.7802745  )
         9           C   tau(   9) = (   1.1916901   0.3773173   1.7126545  )
        10           C   tau(  10) = (   0.5761375   1.3370772   0.7940758  )
        11           C   tau(  11) = (   1.1166748   0.4188001   1.8370193  )
        12           C   tau(  12) = (   0.6511527   1.2955943   0.6697109  )
        13           C   tau(  13) = (   0.6188632   0.3172550   1.9872142  )
        14           C   tau(  14) = (   1.1489642   1.3971395   0.5195160  )
        15           C   tau(  15) = (   1.1181413   0.3813095   1.5752550  )
        16           C   tau(  16) = (   0.6496862   1.3330849   0.9314752  )
        17           C   tau(  17) = (   1.1907247   0.3418106   1.4466450  )
        18           C   tau(  18) = (   0.5771028   1.3725839   1.0600852  )
        19           C   tau(  19) = (   1.1295788   0.3572454   1.3167844  )
        20           C   tau(  20) = (   0.6382487   1.3571491   1.1899458  )
        21           C   tau(  21) = (   1.1854422   0.3176774   1.1815984  )
        22           C   tau(  22) = (   0.5823853   1.3967170   1.3251318  )
        23           C   tau(  23) = (   0.3206237   0.2571160   1.1598392  )
        24           C   tau(  24) = (   1.4472039   1.4572786   1.3468912  )
        25           C   tau(  25) = (   0.3653153   0.2162355   1.0273098  )
        26           C   tau(  26) = (   1.4025123   1.4981591   1.4794205  )
        27           C   tau(  27) = (   0.2756958   0.2302778   0.9070254  )
        28           C   tau(  28) = (   1.4921319   1.4841167   1.5997049  )
        29           C   tau(  29) = (   1.1419571   0.2950157   0.9273694  )
        30           C   tau(  30) = (   0.6258704   1.4193787   1.5793608  )
        31           C   tau(  31) = (   1.1002015   0.3377183   1.0604471  )
        32           C   tau(  32) = (   0.6676261   1.3766763   1.4462832  )
        33           C   tau(  33) = (   0.4539116   0.1162293   0.7572760  )
        34           C   tau(  34) = (   1.3139160   1.5981652   1.7494543  )
        35           C   tau(  35) = (   0.2212727   0.1960357   0.6570281  )
        36           C   tau(  36) = (   1.5465549   1.5183587   1.8497022  )
        37           C   tau(  37) = (   1.1636654   1.0779315   0.7645768  )
        38           C   tau(  38) = (   0.6041621   0.6364630   1.7421534  )
        39           C   tau(  39) = (   0.3845245   0.9822843   0.6847244  )
        40           C   tau(  40) = (   1.3833031   0.7321103   1.8220059  )
        41           C   tau(  41) = (   0.4406885   0.9769172   0.8202834  )
        42           C   tau(  42) = (   1.3271390   0.7374772   1.6864468  )
        43           C   tau(  43) = (   0.5800877   0.9267475   0.8439127  )
        44           C   tau(  44) = (   1.1877398   0.7876470   1.6628175  )
        45           C   tau(  45) = (   0.6612617   0.8803763   0.7253657  )
        46           C   tau(  46) = (   1.1065657   0.8340182   1.7813645  )
        47           C   tau(  47) = (   0.6018173   0.8850065   0.5893895  )
        48           C   tau(  48) = (   1.1660103   0.8293880   1.9173407  )
        49           C   tau(  49) = (   0.4663440   0.9361045   0.5692288  )
        50           C   tau(  50) = (   1.3014836   0.7782900   1.9375015  )
        51           C   tau(  51) = (   0.6459749   0.9227976   0.9848281  )
        52           C   tau(  52) = (   1.1218526   0.7915968   1.5219021  )
        53           C   tau(  53) = (   0.5702795   0.9640255   1.1106417  )
        54           C   tau(  54) = (   1.1975480   0.7503690   1.3960885  )
        55           C   tau(  55) = (   0.6340604   0.9584640   1.2402938  )
        56           C   tau(  56) = (   1.1337671   0.7559305   1.2664366  )
        57           C   tau(  57) = (   0.5803509   1.0004539   1.3752125  )
        58           C   tau(  58) = (   1.1874767   0.7139405   1.1315177  )
        59           C   tau(  59) = (   0.6682008   0.9835587   1.4952127  )
        60           C   tau(  60) = (   1.0996268   0.7308358   1.0115175  )
        61           C   tau(  61) = (   0.6265787   1.0256840   1.6285462  )
        62           C   tau(  62) = (   1.1412488   0.6887105   0.8781841  )
        63           C   tau(  63) = (   0.4918045   1.0889710   1.6493146  )
        64           C   tau(  64) = (   1.2760230   0.6254235   0.8574157  )
        65           C   tau(  65) = (   1.4018483   1.1042411   1.5292674  )
        66           C   tau(  66) = (   0.3659792   0.6101534   0.9774628  )
        67           C   tau(  67) = (   1.4452975   1.0615046   1.3971109  )
        68           C   tau(  68) = (   0.3225300   0.6528899   1.1096194  )
        69           C   tau(  69) = (   1.3078574   1.1899238   1.8011044  )
        70           C   tau(  70) = (   0.4599701   0.5244707   0.7056259  )
        71           C   tau(  71) = (   0.5400435   1.1104085   1.9019433  )
        72           C   tau(  72) = (   1.2277841   0.6039860   0.6047870  )
        73           C   tau(  73) = (   0.7820203   0.7846096   2.0799049  )
        74           C   tau(  74) = (   0.9858074   0.9297850   0.4268253  )
        75           C   tau(  75) = (   0.8686547   0.9733043   2.2266334  )
        76           C   tau(  76) = (   0.8991729   0.7410901   0.2800969  )
        77           C   tau(  77) = (   0.8924404   1.0204033   2.3661829  )
        78           C   tau(  78) = (   0.8753872   0.6939912   0.1405473  )
        79           C   tau(  79) = (   0.9201733   1.1610483   2.3938900  )
        80           C   tau(  80) = (   0.8476542   0.5533462   0.1128402  )
        81           C   tau(  81) = (   0.9265829   1.2593782   2.2822488  )
        82           C   tau(  82) = (   0.8412447   0.4550163   0.2244815  )
        83           C   tau(  83) = (   0.9134541   1.2117263   2.1395321  )
        84           C   tau(  84) = (   0.8543735   0.5026681   0.3671982  )
        85           C   tau(  85) = (   0.8822855   1.0671539   2.1144408  )
        86           C   tau(  86) = (   0.8855421   0.6472406   0.3922894  )
        87           C   tau(  87) = (   0.9354885   1.3150791   2.0252988  )
        88           C   tau(  88) = (   0.8323390   0.3993154   0.4814314  )
        89           C   tau(  89) = (   0.9489354   1.2699595   1.8791967  )
        90           C   tau(  90) = (   0.8188922   0.4444350   0.6275336  )
        91           C   tau(  91) = (   0.9753288   1.3650107   1.7733216  )
        92           C   tau(  92) = (   0.7924989   0.3493837   0.7334087  )
        93           C   tau(  93) = (   0.9988752   1.3353155   1.6262612  )
        94           C   tau(  94) = (   0.7689524   0.3790791   0.8804690  )
        95           C   tau(  95) = (   1.0195495   1.4477699   1.5299173  )
        96           C   tau(  96) = (   0.7482782   0.2666247   0.9768130  )
        97           C   tau(  97) = (   1.0381645   1.4249290   1.3866496  )
        98           C   tau(  98) = (   0.7296630   0.2894655   1.1200806  )
        99           C   tau(  99) = (   1.0365136   1.2856021   1.3298895  )
       100           C   tau( 100) = (   0.7313139   0.4287924   1.1768407  )
       101           C   tau( 101) = (   1.0199586   1.1716693   1.4269304  )
       102           C   tau( 102) = (   0.7478690   0.5427251   1.0797998  )
       103           C   tau( 103) = (   1.0012051   1.1967238   1.5693181  )
       104           C   tau( 104) = (   0.7666224   0.5176707   0.9374121  )
       105           C   tau( 105) = (   1.0263550   1.1201465   1.1303958  )
       106           C   tau( 106) = (   0.7414726   0.5942479   1.3763345  )
       107           C   tau( 107) = (   1.0757573   1.3774672   1.0916336  )
       108           C   tau( 108) = (   0.6920703   0.3369272   1.4150967  )
       109           C   tau( 109) = (   0.8529565   1.1500594   0.0757936  )
       110           C   tau( 110) = (   0.9148711   0.5643351   2.4309366  )
       111           C   tau( 111) = (   1.0695465   1.2812087   0.0947049  )
       112           C   tau( 112) = (   0.6982810   0.4331859   2.4120254  )
       113           C   tau( 113) = (   1.1381814   1.4128948   0.0806026  )
       114           C   tau( 114) = (   0.6296462   0.3014997   2.4261276  )
       115           C   tau( 115) = (   1.2818818   1.4244364   0.1050868  )
       116           C   tau( 116) = (   0.4859457   0.2899581   2.4016436  )
       117           C   tau( 117) = (   1.3620061   1.3047124   0.1424362  )
       118           C   tau( 118) = (   0.4058215   0.4096820   2.3642940  )
       119           C   tau( 119) = (   1.2945341   1.1702033   0.1545721  )
       120           C   tau( 120) = (   0.4732935   0.5441911   2.3521581  )
       121           C   tau( 121) = (   1.1466901   1.1614075   0.1309588  )
       122           C   tau( 122) = (   0.6211374   0.5529870   2.3757714  )
       123           C   tau( 123) = (   0.3828377   1.0466269   0.1872455  )
       124           C   tau( 124) = (   1.3849898   0.6677676   2.3194847  )
       125           C   tau( 125) = (   0.3257819   0.9047345   0.1910428  )
       126           C   tau( 126) = (   1.4420456   0.8096601   2.3156874  )
       127           C   tau( 127) = (   0.4132594   0.7940213   0.2223341  )
       128           C   tau( 128) = (   1.3545681   0.9203733   2.2843961  )
       129           C   tau( 129) = (   0.3810147   0.6469520   0.2345277  )
       130           C   tau( 130) = (   1.3868129   1.0674425   2.2722025  )
       131           C   tau( 131) = (   0.4889393   0.5532160   0.2784567  )
       132           C   tau( 132) = (   1.2788882   1.1611785   2.2282734  )
       133           C   tau( 133) = (   0.4648004   0.4102301   0.2959665  )
       134           C   tau( 134) = (   1.3030271   1.3041645   2.2107637  )
       135           C   tau( 135) = (   0.3282155   0.3524286   0.2706668  )
       136           C   tau( 136) = (   1.4396121   1.3619659   2.2360634  )
       137           C   tau( 137) = (   0.2197404   0.4463769   0.2241331  )
       138           C   tau( 138) = (   1.5480873   1.2680176   2.2825970  )
       139           C   tau( 139) = (   0.2460618   0.5884834   0.2066993  )
       140           C   tau( 140) = (   1.5217657   1.1259110   2.3000309  )
       141           C   tau( 141) = (   0.1574309   0.1581409   0.2751418  )
       142           C   tau( 142) = (   1.6103967   1.5562537   2.2315884  )
       143           C   tau( 143) = (   0.4167815   0.1138488   0.3126847  )
       144           C   tau( 144) = (   1.3510460   1.6005457   2.1940456  )
       145           H   tau( 145) = (   1.1283797   0.4499178   2.0620715  )
       146           H   tau( 146) = (   0.6394478   1.2644768   0.4446587  )
       147           H   tau( 147) = (   0.3767021   0.3749583   2.0823444  )
       148           H   tau( 148) = (   1.3911254   1.3394363   0.4243859  )
       149           H   tau( 149) = (   0.3961115   0.3063155   1.6341914  )
       150           H   tau( 150) = (   1.3717160   1.4080790   0.8725388  )
       151           H   tau( 151) = (   0.6034951   0.4251430   2.0288207  )
       152           H   tau( 152) = (   1.1643324   1.2892515   0.4779096  )
       153           H   tau( 153) = (   0.7309561   0.3019315   1.9616551  )
       154           H   tau( 154) = (   1.0368714   1.4124630   0.5450752  )
       155           H   tau( 155) = (   0.5844892   0.2390469   2.0664665  )
       156           H   tau( 156) = (   1.1833383   1.4753475   0.4402637  )
       157           H   tau( 157) = (   0.2961312   0.2962594   1.4549394  )
       158           H   tau( 158) = (   1.4716963   1.4181351   1.0517908  )
       159           H   tau( 159) = (   1.0235531   0.4040072   1.3153141  )
       160           H   tau( 160) = (   0.7442745   1.3103873   1.1914162  )
       161           H   tau( 161) = (   0.3917309   0.2421985   1.2496370  )
       162           H   tau( 162) = (   1.3760966   1.4721959   1.2570932  )
       163           H   tau( 163) = (   0.4712025   0.1733162   1.0146591  )
       164           H   tau( 164) = (   1.2966251   1.5410783   1.4920711  )
       165           H   tau( 165) = (   1.0714959   0.3127851   0.8381757  )
       166           H   tau( 166) = (   0.6963316   1.4016094   1.6685545  )
       167           H   tau( 167) = (   0.9974400   0.3884658   1.0730952  )
       168           H   tau( 168) = (   0.7703875   1.3259287   1.4336351  )
       169           H   tau( 169) = (   0.5412319   0.1926832   0.7696561  )
       170           H   tau( 170) = (   1.2265957   1.5217113   1.7370741  )
       171           H   tau( 171) = (   0.4588933   0.0713272   0.6507265  )
       172           H   tau( 172) = (   1.3089343   1.6430674   1.8560038  )
       173           H   tau( 173) = (   0.8987682   1.5108652   0.8329606  )
       174           H   tau( 174) = (   0.8690594   0.2035293   1.6737696  )
       175           H   tau( 175) = (   0.1198762   0.1424272   0.6780510  )
       176           H   tau( 176) = (   1.6479513   1.5719673   1.8286792  )
       177           H   tau( 177) = (   0.2695321   0.1469091   0.5641081  )
       178           H   tau( 178) = (   1.4982954   1.5674854   1.9426222  )
       179           H   tau( 179) = (   0.1996014   0.3079786   0.6322888  )
       180           H   tau( 180) = (   1.5682261   1.4064159   1.8744414  )
       181           H   tau( 181) = (   1.1463155   0.9926144   0.8423414  )
       182           H   tau( 182) = (   0.6215121   0.7217800   1.6643887  )
       183           H   tau( 183) = (   1.0625083   1.1088682   0.7167438  )
       184           H   tau( 184) = (   0.7053193   0.6055263   1.7899864  )
       185           H   tau( 185) = (   1.2122725   1.1703280   0.8169971  )
       186           H   tau( 186) = (   0.5555550   0.5440665   1.6897332  )
       187           H   tau( 187) = (   1.3773724   1.0122306   0.9095182  )
       188           H   tau( 188) = (   0.3904551   0.7021639   1.5972121  )
       189           H   tau( 189) = (   0.6651182   0.8494189   0.4996997  )
       190           H   tau( 190) = (   1.1027093   0.8649757   2.0070304  )
       191           H   tau( 191) = (   0.4214627   0.9421871   0.4632370  )
       192           H   tau( 192) = (   1.3463648   0.7722074   2.0434931  )
       193           H   tau( 193) = (   0.4618709   1.0014464   1.1008127  )
       194           H   tau( 194) = (   1.3059568   0.7129481   1.4059175  )
       195           H   tau( 195) = (   0.7425685   0.9176727   1.2414304  )
       196           H   tau( 196) = (   1.0252590   0.7967217   1.2652999  )
       197           H   tau( 197) = (   0.7726194   0.9365026   1.4806149  )
       198           H   tau( 198) = (   0.9952081   0.7778920   1.0261153  )
       199           H   tau( 199) = (   0.6983190   1.0105516   1.7173154  )
       200           H   tau( 200) = (   1.0695085   0.7038429   0.7894148  )
       201           H   tau( 201) = (   1.2973602   1.1509170   1.5412328  )
       202           H   tau( 202) = (   0.4704673   0.5634775   0.9654974  )
       203           H   tau( 203) = (   1.3740021   1.0761493   1.3075341  )
       204           H   tau( 204) = (   0.3938254   0.6382452   1.1991961  )
       205           H   tau( 205) = (   1.2878519   1.2811104   1.7315715  )
       206           H   tau( 206) = (   0.4799756   0.4332840   0.7751587  )
       207           H   tau( 207) = (   1.2969749   1.2242844   1.9112041  )
       208           H   tau( 208) = (   0.4708526   0.4901102   0.5955261  )
       209           H   tau( 209) = (   1.2266715   1.1089964   1.7795042  )
       210           H   tau( 210) = (   0.5411561   0.6053982   0.7272260  )
       211           H   tau( 211) = (   0.5578504   0.9963640   1.9196453  )
       212           H   tau( 212) = (   1.2099772   0.7180305   0.5870850  )
       213           H   tau( 213) = (   1.4895533   1.1543651   1.9965316  )
       214           H   tau( 214) = (   0.2782742   0.5600293   0.5101987  )
       215           H   tau( 215) = (   0.6439128   1.1618360   1.8883602  )
       216           H   tau( 216) = (   1.1239147   0.5525585   0.6183700  )
       217           H   tau( 217) = (   0.6887487   0.8459553   2.0461584  )
       218           H   tau( 218) = (   1.0790788   0.8684392   0.4605719  )
       219           H   tau( 219) = (   0.7514822   0.6737549   2.0957322  )
       220           H   tau( 220) = (   1.0163454   1.0406396   0.4109980  )
       221           H   tau( 221) = (   0.8649589   0.7915514   1.9983057  )
       222           H   tau( 222) = (   0.9028687   0.9228430   0.5084246  )
       223           H   tau( 223) = (   0.8846344   0.9443436   2.4525946  )
       224           H   tau( 224) = (   0.8831931   0.7700508   0.0541356  )
       225           H   tau( 225) = (   0.9337935   1.1989415   2.5020123  )
       226           H   tau( 226) = (   0.8340340   0.5154531   0.0047180  )
       227           H   tau( 227) = (   0.8674703   1.0291897   2.0067236  )
       228           H   tau( 228) = (   0.9003572   0.6852049   0.5000066  )
       229           H   tau( 229) = (   0.9436867   1.1570840   1.8558256  )
       230           H   tau( 230) = (   0.8241409   0.5573106   0.6509047  )
       231           H   tau( 231) = (   0.9789101   1.4768278   1.8041048  )
       232           H   tau( 232) = (   0.7889174   0.2375668   0.7026254  )
       233           H   tau( 233) = (   1.0178289   1.5560073   1.5705425  )
       234           H   tau( 234) = (   0.7499987   0.1583872   0.9361877  )
       235           H   tau( 235) = (   1.0498740   1.5153031   1.3163780  )
       236           H   tau( 236) = (   0.7179536   0.1990914   1.1903522  )
       237           H   tau( 237) = (   1.0210956   1.0626092   1.3900352  )
       238           H   tau( 238) = (   0.7467319   0.6517853   1.1166950  )
       239           H   tau( 239) = (   0.9881919   1.1061089   1.6394566  )
       240           H   tau( 240) = (   0.7796356   0.6082855   0.8672737  )
       241           H   tau( 241) = (   1.1163761   1.0491076   1.1527141  )
       242           H   tau( 242) = (   0.6514514   0.6652869   1.3540161  )
       243           H   tau( 243) = (   1.0112292   1.1283045   1.0160192  )
       244           H   tau( 244) = (   0.7565984   0.5860899   1.4907110  )
       245           H   tau( 245) = (   0.9299598   1.0717008   1.1739537  )
       246           H   tau( 246) = (   0.8378678   0.6426937   1.3327765  )
       247           H   tau( 247) = (   0.9835576   1.4485500   1.0832406  )
       248           H   tau( 248) = (   0.7842700   0.2658445   1.4234895  )
       249           H   tau( 249) = (   1.0973653   1.3349428   0.9860214  )
       250           H   tau( 250) = (   0.6704623   0.3794517   1.5207088  )
       251           H   tau( 251) = (   1.1683465   1.4393023   1.1266297  )
       252           H   tau( 252) = (   0.5994811   0.2750921   1.3801005  )
       253           H   tau( 253) = (   0.8993842   1.0735469   0.0009053  )
       254           H   tau( 254) = (   0.8684434   0.6408476   2.5058249  )
       255           H   tau( 255) = (   0.7439092   1.1731891   0.0442647  )
       256           H   tau( 256) = (   1.0239183   0.5412055   2.4624654  )
       257           H   tau( 257) = (   0.8559317   1.1050603   0.1831777  )
       258           H   tau( 258) = (   0.9118959   0.6093341   2.3235525  )
       259           H   tau( 259) = (   0.6467241   0.0229546   0.0480859  )
       260           H   tau( 260) = (   1.1211034   1.6914398   2.4586444  )
       261           H   tau( 261) = (   0.9053500   0.0440544   0.0926074  )
       262           H   tau( 262) = (   0.8624776   1.6703401   2.4141227  )
       263           H   tau( 263) = (   1.0929705   1.0600692   0.1410381  )
       264           H   tau( 264) = (   0.6748570   0.6543253   2.3656920  )
       265           H   tau( 265) = (   1.2136768   0.8881755   0.1701287  )
       266           H   tau( 266) = (   0.5541507   0.8262190   2.3366016  )
       267           H   tau( 267) = (   0.5238946   0.8219629   0.2428921  )
       268           H   tau( 268) = (   1.2439330   0.8924316   2.2638381  )
       269           H   tau( 269) = (   0.5942625   0.5958579   0.2992386  )
       270           H   tau( 270) = (   1.1735650   1.1185365   2.2074917  )
       271           H   tau( 271) = (   0.5516233   0.3418968   0.3282932  )
       272           H   tau( 272) = (   1.2162042   1.3724977   2.1784369  )
       273           H   tau( 273) = (   1.1154785   0.4051304   0.1987796  )
       274           H   tau( 274) = (   0.6523492   1.3092642   2.3079507  )
       275           H   tau( 275) = (   1.1605159   0.6562725   0.1693575  )
       276           H   tau( 276) = (   0.6073116   1.0581220   2.3373728  )
       277           H   tau( 277) = (   0.0834933   0.2197642   0.3406934  )
       278           H   tau( 278) = (   1.6843342   1.4946304   2.1660369  )
       279           H   tau( 279) = (   0.1544969   0.0476641   0.3094458  )
       280           H   tau( 280) = (   1.6133306   1.6667303   2.1972844  )
       281           H   tau( 281) = (   0.1212042   0.1616439   0.1644120  )
       282           H   tau( 282) = (   1.6466233   1.5527506   2.3423182  )
       283           H   tau( 283) = (   0.4956044   0.1210619   0.2270970  )
       284           H   tau( 284) = (   1.2722232   1.5933326   2.2796332  )
       285           H   tau( 285) = (   0.8046216   1.4877225   0.3145222  )
       286           H   tau( 286) = (   0.9632059   0.2266721   2.1922080  )
       287           H   tau( 287) = (   0.4714974   0.1348661   0.4137556  )
       288           H   tau( 288) = (   1.2963302   1.5795284   2.0929745  )
       289           H   tau( 289) = (   0.8129172   0.8461429   0.8501843  )
       290           H   tau( 290) = (   0.9549104   0.8682516   1.6565460  )
       291           H   tau( 291) = (   0.9479390   1.4454158   2.2143969  )
       292           H   tau( 292) = (   0.8198885   0.2689787   0.2923334  )
       293           H   tau( 293) = (   0.5346474   1.2167804   0.1888157  )
       294           H   tau( 294) = (   1.2331801   0.4976141   2.3179146  )
       295           H   tau( 295) = (   0.9566240   0.4536141   1.7241557  )
       296           H   tau( 296) = (   0.8112035   1.2607805   0.7825745  )
       297           N   tau( 297) = (   0.3166481   0.1827358   0.7769939  )
       298           N   tau( 298) = (   1.4511795   1.5316588   1.7297364  )
       299           N   tau( 299) = (   1.4499095   1.1343422   1.7794941  )
       300           N   tau( 300) = (   0.3179180   0.5800523   0.7272362  )
       301           N   tau( 301) = (   1.0484770   1.2612666   1.1882161  )
       302           N   tau( 302) = (   0.7193506   0.4531279   1.3185141  )
       303           N   tau( 303) = (   0.3010578   0.2123634   0.2895023  )
       304           N   tau( 304) = (   1.4667698   1.5020312   2.2172280  )
       305           O   tau( 305) = (   0.5432618   0.2987385   1.8567205  )
       306           O   tau( 306) = (   1.2245657   1.4156561   0.6500098  )
       307           O   tau( 307) = (   0.9799842   0.4599887   1.8311068  )
       308           O   tau( 308) = (   0.7878433   1.2544057   0.6756234  )
       309           O   tau( 309) = (   0.9883266   0.4204677   1.5726880  )
       310           O   tau( 310) = (   0.7795009   1.2939269   0.9340423  )
       311           O   tau( 311) = (   1.2510946   1.0300078   0.6507172  )
       312           O   tau( 312) = (   0.5167330   0.6843866   1.8560131  )
       313           O   tau( 313) = (   0.7754899   0.8815961   0.9944409  )
       314           O   tau( 314) = (   0.9923377   0.8327984   1.5122895  )
       315           O   tau( 315) = (   0.7949730   0.8313152   0.7414435  )
       316           O   tau( 316) = (   0.9728546   0.8830793   1.7652868  )
       317           O   tau( 317) = (   0.8316390   0.8334107   2.2149041  )
       318           O   tau( 318) = (   0.9361885   0.8809838   0.2918261  )
       319           O   tau( 319) = (   0.9456898   1.3968763   2.3132904  )
       320           O   tau( 320) = (   0.8221377   0.3175181   0.1934398  )
       321           O   tau( 321) = (   0.9478682   1.4459891   2.0583461  )
       322           O   tau( 322) = (   0.8199593   0.2684054   0.4483841  )
       323           O   tau( 323) = (   0.9266849   1.2826326   0.0694066  )
       324           O   tau( 324) = (   0.8411427   0.4317618   2.4373237  )
       325           O   tau( 325) = (   0.5020555   1.3198017   0.1648599  )
       326           O   tau( 326) = (   1.2657720   0.3945928   2.3418703  )
       327           O   tau( 327) = (   0.5151089   1.0657312   0.2114490  )
       328           O   tau( 328) = (   1.2527186   0.6486633   2.2952813  )

     number of k points=     4
                       cart. coord. in units 2pi/alat
        k(    1) = (   0.0000000   0.0000000   0.0000000), wk =   0.5000000
        k(    2) = (   0.0000000  -0.3374079   0.0312959), wk =   0.5000000
        k(    3) = (  -0.5000000   0.1449796   0.0539993), wk =   0.5000000
        k(    4) = (  -0.5000000  -0.1924284   0.0852951), wk =   0.5000000

     Dense  grid:   468863 G-vectors     FFT dimensions: (  64, 100, 160)

     Largest allocated arrays     est. size (Mb)     dimensions
        Kohn-Sham Wavefunctions       408.37 Mb     (  58690,  456)
        NL pseudopotentials          1533.16 Mb     (  58690, 1712)
        Each V/rho on FFT grid         15.62 Mb     (1024000)
        Each G-vector array             3.58 Mb     ( 468863)
        G-vector shells                 1.79 Mb     ( 234432)
     Largest temporary arrays     est. size (Mb)     dimensions
        Auxiliary wavefunctions      1633.46 Mb     (  58690, 1824)
        Each subspace H/S matrix       50.77 Mb     (1824,1824)
        Each <psi_i|beta_j> matrix     11.91 Mb     (   1712,  456)
        Arrays for rho mixing         125.00 Mb     (1024000,   8)

     Initial potential from superposition of free atoms

     starting charge  897.36927, renormalised to  912.00000
     Starting wfc are  856 randomized atomic wfcs

     total cpu time spent up to now is      419.7 secs

     Self-consistent Calculation

     iteration #  1     ecut=    30.00 Ry     beta=0.70
     Davidson diagonalization with overlap
     ethr =  1.00E-02,  avg # of iterations =  2.0

     total cpu time spent up to now is     1271.4 secs

     total energy              =   -2724.34869650 Ry
     Harris-Foulkes estimate   =   -2767.16833519 Ry
     estimated scf accuracy    <      63.98336491 Ry

     iteration #  2     ecut=    30.00 Ry     beta=0.70
     Davidson diagonalization with overlap
     ethr =  7.02E-03,  avg # of iterations =  6.0

     total cpu time spent up to now is     2343.5 secs

     total energy              =   -2684.39445389 Ry
     Harris-Foulkes estimate   =   -2766.28695097 Ry
     estimated scf accuracy    <     232.06387377 Ry

     iteration #  3     ecut=    30.00 Ry     beta=0.70
     Davidson diagonalization with overlap
     ethr =  7.02E-03,  avg # of iterations =  6.0

     total cpu time spent up to now is     3595.0 secs

     total energy              =   -2693.54981480 Ry
     Harris-Foulkes estimate   =   -2769.77129974 Ry
     estimated scf accuracy    <     474.06205267 Ry

     iteration #  4     ecut=    30.00 Ry     beta=0.70
     Davidson diagonalization with overlap
     ethr =  7.02E-03,  avg # of iterations =  7.0

     total cpu time spent up to now is     4904.7 secs

     total energy              =   -2676.18670187 Ry
     Harris-Foulkes estimate   =   -2781.88185729 Ry
     estimated scf accuracy    <    1734.49742476 Ry

     iteration #  5     ecut=    30.00 Ry     beta=0.70
     Davidson diagonalization with overlap
     ethr =  7.02E-03,  avg # of iterations =  7.5

     total cpu time spent up to now is     5921.6 secs

     total energy              =   -2740.17715725 Ry
     Harris-Foulkes estimate   =   -2748.26178699 Ry
     estimated scf accuracy    <      26.69696448 Ry

     iteration #  6     ecut=    30.00 Ry     beta=0.70
     Davidson diagonalization with overlap
     ethr =  2.93E-03,  avg # of iterations =  5.0

     total cpu time spent up to now is     6607.5 secs

     total energy              =   -2743.71443059 Ry
     Harris-Foulkes estimate   =   -2745.32582023 Ry
     estimated scf accuracy    <       3.95873279 Ry

     iteration #  7     ecut=    30.00 Ry     beta=0.70
     Davidson diagonalization with overlap
     ethr =  4.34E-04,  avg # of iterations =  4.0

     negative rho (up, down):  0.416E-05 0.000E+00

     total cpu time spent up to now is     7352.0 secs

     total energy              =   -2744.20145984 Ry
     Harris-Foulkes estimate   =   -2744.45806176 Ry
     estimated scf accuracy    <       0.69391777 Ry

     iteration #  8     ecut=    30.00 Ry     beta=0.70
     Davidson diagonalization with overlap
     ethr =  7.61E-05,  avg # of iterations =  4.8

     negative rho (up, down):  0.134E-04 0.000E+00

     total cpu time spent up to now is     8120.8 secs

     total energy              =   -2744.25106312 Ry
     Harris-Foulkes estimate   =   -2744.38692551 Ry
     estimated scf accuracy    <       0.46660935 Ry

     iteration #  9     ecut=    30.00 Ry     beta=0.70
     Davidson diagonalization with overlap
     ethr =  5.12E-05,  avg # of iterations =  4.0

     negative rho (up, down):  0.285E-04 0.000E+00

     total cpu time spent up to now is     8770.3 secs

     total energy              =   -2744.28910959 Ry
     Harris-Foulkes estimate   =   -2744.33262187 Ry
     estimated scf accuracy    <       0.14909637 Ry

     iteration # 10     ecut=    30.00 Ry     beta=0.70
     Davidson diagonalization with overlap
     ethr =  1.63E-05,  avg # of iterations =  4.0

     negative rho (up, down):  0.387E-04 0.000E+00

     total cpu time spent up to now is     9445.8 secs

     total energy              =   -2744.30050240 Ry
     Harris-Foulkes estimate   =   -2744.31343715 Ry
     estimated scf accuracy    <       0.06216539 Ry

     iteration # 11     ecut=    30.00 Ry     beta=0.70
     Davidson diagonalization with overlap
     ethr =  6.82E-06,  avg # of iterations =  4.0

     negative rho (up, down):  0.361E-04 0.000E+00

     total cpu time spent up to now is    10083.9 secs

     total energy              =   -2744.30266238 Ry
     Harris-Foulkes estimate   =   -2744.30664667 Ry
     estimated scf accuracy    <       0.03172181 Ry

     iteration # 12     ecut=    30.00 Ry     beta=0.70
     Davidson diagonalization with overlap
     ethr =  3.48E-06,  avg # of iterations =  4.0

     negative rho (up, down):  0.400E-04 0.000E+00

     total cpu time spent up to now is    10692.7 secs

     total energy              =   -2744.29676151 Ry
     Harris-Foulkes estimate   =   -2744.30380743 Ry
     estimated scf accuracy    <       0.02171548 Ry

     iteration # 13     ecut=    30.00 Ry     beta=0.70
     Davidson diagonalization with overlap
     ethr =  2.38E-06,  avg # of iterations =  4.5

     negative rho (up, down):  0.402E-04 0.000E+00

     total cpu time spent up to now is    11507.0 secs

     total energy              =   -2744.29275443 Ry
     Harris-Foulkes estimate   =   -2744.30066362 Ry
     estimated scf accuracy    <       0.01173461 Ry

     iteration # 14     ecut=    30.00 Ry     beta=0.70
     Davidson diagonalization with overlap
     ethr =  1.29E-06,  avg # of iterations =  5.0

     negative rho (up, down):  0.399E-04 0.000E+00

     total cpu time spent up to now is    12360.3 secs

     total energy              =   -2744.29149802 Ry
     Harris-Foulkes estimate   =   -2744.30397185 Ry
     estimated scf accuracy    <       0.03775149 Ry

     iteration # 15     ecut=    30.00 Ry     beta=0.70
     Davidson diagonalization with overlap
     ethr =  1.29E-06,  avg # of iterations =  5.0

     negative rho (up, down):  0.396E-04 0.000E+00

     total cpu time spent up to now is    13164.7 secs

     total energy              =   -2744.29714031 Ry
     Harris-Foulkes estimate   =   -2744.29806970 Ry
     estimated scf accuracy    <       0.00219005 Ry

     iteration # 16     ecut=    30.00 Ry     beta=0.70
     Davidson diagonalization with overlap
     ethr =  2.40E-07,  avg # of iterations =  4.8

     negative rho (up, down):  0.399E-04 0.000E+00

     total cpu time spent up to now is    13933.3 secs

     total energy              =   -2744.29753826 Ry
     Harris-Foulkes estimate   =   -2744.29771481 Ry
     estimated scf accuracy    <       0.00038818 Ry

     iteration # 17     ecut=    30.00 Ry     beta=0.70
     Davidson diagonalization with overlap
     ethr =  4.26E-08,  avg # of iterations =  5.0

     negative rho (up, down):  0.398E-04 0.000E+00

     total cpu time spent up to now is    14711.9 secs

     total energy              =   -2744.29761822 Ry
     Harris-Foulkes estimate   =   -2744.29766206 Ry
     estimated scf accuracy    <       0.00010441 Ry

     iteration # 18     ecut=    30.00 Ry     beta=0.70
     Davidson diagonalization with overlap
     ethr =  1.14E-08,  avg # of iterations =  4.0

     negative rho (up, down):  0.399E-04 0.000E+00

     total cpu time spent up to now is    15457.2 secs

     total energy              =   -2744.29763680 Ry
     Harris-Foulkes estimate   =   -2744.29764484 Ry
     estimated scf accuracy    <       0.00001832 Ry

     iteration # 19     ecut=    30.00 Ry     beta=0.70
     Davidson diagonalization with overlap
     ethr =  2.01E-09,  avg # of iterations =  5.0

     negative rho (up, down):  0.399E-04 0.000E+00

     total cpu time spent up to now is    16231.7 secs

     total energy              =   -2744.29764012 Ry
     Harris-Foulkes estimate   =   -2744.29764250 Ry
     estimated scf accuracy    <       0.00000594 Ry

     iteration # 20     ecut=    30.00 Ry     beta=0.70
     Davidson diagonalization with overlap
     ethr =  6.52E-10,  avg # of iterations =  4.0

     negative rho (up, down):  0.399E-04 0.000E+00

     total cpu time spent up to now is    16952.8 secs

     total energy              =   -2744.29764112 Ry
     Harris-Foulkes estimate   =   -2744.29764171 Ry
     estimated scf accuracy    <       0.00000159 Ry

     iteration # 21     ecut=    30.00 Ry     beta=0.70
     Davidson diagonalization with overlap
     ethr =  1.74E-10,  avg # of iterations =  4.0

     negative rho (up, down):  0.399E-04 0.000E+00

     total cpu time spent up to now is    17655.6 secs

     total energy              =   -2744.29764139 Ry
     Harris-Foulkes estimate   =   -2744.29764147 Ry
     estimated scf accuracy    <       0.00000021 Ry

     iteration # 22     ecut=    30.00 Ry     beta=0.70
     Davidson diagonalization with overlap
     ethr =  2.26E-11,  avg # of iterations =  4.0

     negative rho (up, down):  0.399E-04 0.000E+00

     total cpu time spent up to now is    18393.8 secs

     End of self-consistent calculation

          k = 0.0000 0.0000 0.0000 ( 58625 PWs)   bands (ev):

   -20.5351 -20.5350 -20.4337 -20.4337 -20.3830 -20.3830 -20.3618 -20.3618
   -20.2804 -20.2721 -20.2437 -20.2435 -20.1435 -20.1393 -20.1359 -20.1359
   -19.3160 -19.3160 -19.1645 -19.1641 -19.1124 -19.1124 -19.0929 -19.0894
   -18.2123 -18.2097 -17.9836 -17.9836 -17.9446 -17.9445 -17.9327 -17.9327
   -15.4462 -15.4430 -15.2437 -15.2291 -15.1743 -15.1685 -15.1624 -15.1607
   -15.0990 -15.0794 -15.0498 -15.0469 -15.0046 -15.0003 -14.9238 -14.9163
   -13.8873 -13.8868 -13.6858 -13.6754 -13.6667 -13.6563 -13.6233 -13.5932
   -13.1429 -13.1332 -12.9741 -12.9463 -12.9038 -12.8990 -12.8679 -12.8616
   -12.8596 -12.8331 -12.6191 -12.6184 -12.5948 -12.5934 -12.5551 -12.5527
   -12.4318 -12.4244 -12.4145 -12.4119 -12.4027 -12.4022 -12.3010 -12.2999
   -12.2084 -12.1956 -12.1803 -12.1599 -12.1271 -12.1251 -12.1043 -12.0950
   -12.0840 -12.0446 -11.8466 -11.8438 -11.7972 -11.7968 -11.7628 -11.7622
   -11.1515 -11.1346 -11.0339 -11.0202 -10.8955 -10.8940 -10.8655 -10.8501
   -10.8139 -10.7989 -10.7544 -10.7154 -10.6896 -10.6780 -10.6284 -10.6033
   -10.0048  -9.9836  -9.8259  -9.8104  -9.7907  -9.7477  -9.7371  -9.7011
    -9.3417  -9.3302  -9.1913  -9.1636  -9.1484  -9.1405  -9.1286  -9.1150
    -9.1028  -9.0518  -8.8855  -8.8784  -8.8657  -8.8532  -8.8510  -8.8446
    -8.5131  -8.4826  -8.4023  -8.3809  -8.3663  -8.3374  -8.2678  -8.2637
    -8.2141  -8.1916  -8.0680  -7.9993  -7.9769  -7.9615  -7.9383  -7.9266
    -7.6248  -7.5215  -7.3904  -7.3380  -7.3248  -7.3170  -7.3080  -7.2968
    -7.2075  -7.1233  -7.0286  -7.0247  -7.0085  -6.9309  -6.9223  -6.9170
    -6.9142  -6.9030  -6.8755  -6.8630  -6.8359  -6.8319  -6.7484  -6.7416
    -6.6340  -6.6325  -6.5197  -6.4948  -6.4856  -6.4852  -6.4254  -6.2918
    -6.2899  -6.2601  -6.1528  -6.1521  -6.0758  -6.0658  -6.0466  -6.0279
    -6.0147  -6.0085  -5.9636  -5.9501  -5.8747  -5.8680  -5.8500  -5.8240
    -5.8100  -5.8099  -5.7952  -5.7892  -5.7660  -5.7600  -5.7542  -5.7330
    -5.7067  -5.6888  -5.6624  -5.6479  -5.5350  -5.5150  -5.3955  -5.3792
    -5.3127  -5.2919  -5.2734  -5.2483  -5.2382  -5.1322  -5.1205  -5.0839
    -5.0289  -5.0119  -4.9658  -4.9556  -4.9544  -4.9463  -4.9336  -4.9197
    -4.9059  -4.9053  -4.9001  -4.8790  -4.8545  -4.8451  -4.8204  -4.8172
    -4.7760  -4.7690  -4.7632  -4.7001  -4.6953  -4.6747  -4.6711  -4.6649
    -4.6445  -4.6153  -4.6032  -4.5612  -4.5589  -4.5134  -4.4339  -4.4153
    -4.4007  -4.3970  -4.3846  -4.3836  -4.3704  -4.3629  -4.3414  -4.3331
    -4.3119  -4.2764  -4.2679  -4.2398  -4.2387  -4.2088  -4.2045  -4.1776
    -4.1750  -4.1685  -4.1284  -4.1042  -4.1037  -4.0912  -4.0733  -4.0529
    -4.0444  -4.0306  -4.0166  -4.0154  -3.9721  -3.9711  -3.9581  -3.9543
    -3.9468  -3.9155  -3.8958  -3.8831  -3.8581  -3.8565  -3.8338  -3.8208
    -3.8097  -3.7644  -3.7439  -3.7210  -3.6986  -3.6898  -3.6850  -3.6810
    -3.6543  -3.6379  -3.5792  -3.5469  -3.5379  -3.5297  -3.5046  -3.4885
    -3.4612  -3.4610  -3.3950  -3.3836  -3.3729  -3.3543  -3.3129  -3.2972
    -3.2801  -3.2641  -3.2358  -3.2245  -3.2233  -3.2086  -3.1768  -3.1624
    -3.1334  -3.1216  -3.1126  -3.1018  -3.0822  -3.0623  -3.0425  -3.0272
    -3.0201  -3.0055  -2.9839  -2.9770  -2.9651  -2.9515  -2.9307  -2.9256
    -2.9008  -2.8985  -2.8777  -2.8763  -2.8419  -2.8351  -2.8028  -2.7949
    -2.7615  -2.7399  -2.6949  -2.6725  -2.6665  -2.6469  -2.6192  -2.6139
    -2.6108  -2.6041  -2.5424  -2.5337  -2.4741  -2.4686  -2.3906  -2.3868
    -2.2845  -2.2693  -2.2283  -2.2249  -2.1748  -2.1520  -2.0873  -2.0557
    -2.0257  -2.0181  -2.0006  -1.9787  -1.9395  -1.9380  -1.8987  -1.8514
    -1.8491  -1.8070  -1.7962  -1.7864  -1.7710  -1.7650  -1.7463  -1.7072
    -1.7038  -1.6718  -1.6692  -1.6593  -1.6335  -1.5419  -1.5158  -1.4570
    -1.0418  -1.0384  -0.9677  -0.9627  -0.8682  -0.8632  -0.8233  -0.7922
    -0.6859  -0.6762  -0.6498  -0.5717  -0.5111  -0.5055  -0.4958  -0.4885
    -0.4697  -0.3769  -0.3606  -0.3399  -0.2722  -0.2657  -0.2494  -0.2380
    -0.2198  -0.2072  -0.1646  -0.1570  -0.1496  -0.1436  -0.0836   0.0251
     0.0500   0.0538   0.0695   0.0719   0.1993   0.2028   0.2224   0.2612
     0.9026   0.9343   1.0584   1.0758   1.1093   1.1358   1.1405   1.1639
     1.2123   1.2321   1.2763   1.3188   1.3571   1.4399   1.4609   1.5626

          k = 0.0000-0.3374 0.0313 ( 58690 PWs)   bands (ev):

   -20.5351 -20.5350 -20.4337 -20.4337 -20.3831 -20.3829 -20.3618 -20.3618
   -20.2803 -20.2721 -20.2437 -20.2435 -20.1435 -20.1393 -20.1359 -20.1359
   -19.3160 -19.3160 -19.1646 -19.1641 -19.1124 -19.1124 -19.0929 -19.0894
   -18.2124 -18.2097 -17.9836 -17.9836 -17.9446 -17.9445 -17.9327 -17.9327
   -15.4460 -15.4432 -15.2439 -15.2295 -15.1697 -15.1682 -15.1664 -15.1620
   -15.0968 -15.0808 -15.0495 -15.0467 -15.0043 -15.0009 -14.9235 -14.9168
   -13.8882 -13.8859 -13.6814 -13.6795 -13.6677 -13.6601 -13.6204 -13.5943
   -13.1416 -13.1344 -12.9727 -12.9477 -12.9051 -12.8750 -12.8702 -12.8619
   -12.8575 -12.8320 -12.6195 -12.6189 -12.5951 -12.5933 -12.5561 -12.5518
   -12.4329 -12.4224 -12.4141 -12.4133 -12.4030 -12.4024 -12.3012 -12.2999
   -12.2112 -12.2092 -12.1948 -12.1694 -12.1285 -12.1216 -12.1030 -12.0951
   -12.0835 -12.0466 -11.8460 -11.8440 -11.7978 -11.7962 -11.7637 -11.7608
   -11.1473 -11.1372 -11.0342 -11.0203 -10.8968 -10.8855 -10.8683 -10.8442
   -10.8175 -10.8003 -10.7569 -10.7026 -10.7023 -10.6751 -10.6016 -10.5786
    -9.9943  -9.9940  -9.8288  -9.8087  -9.7906  -9.7608  -9.7475  -9.7047
    -9.3418  -9.3309  -9.1795  -9.1697  -9.1571  -9.1495  -9.1217  -9.1103
    -9.1101  -9.0689  -8.9017  -8.8945  -8.8833  -8.8687  -8.8505  -8.8465
    -8.5212  -8.4714  -8.4038  -8.3770  -8.3688  -8.3360  -8.2686  -8.2164
    -8.1860  -8.1601  -8.0734  -7.9991  -7.9777  -7.9615  -7.9372  -7.9322
    -7.6274  -7.5185  -7.3912  -7.3309  -7.3249  -7.3199  -7.2806  -7.2698
    -7.2069  -7.1211  -7.0369  -7.0241  -7.0064  -6.9308  -6.9273  -6.9254
    -6.9192  -6.9093  -6.8810  -6.8750  -6.8412  -6.8371  -6.7769  -6.7631
    -6.6215  -6.6151  -6.5196  -6.4957  -6.4871  -6.4869  -6.4190  -6.3052
    -6.2811  -6.2679  -6.1512  -6.1462  -6.0634  -6.0448  -6.0438  -6.0392
    -6.0141  -6.0062  -5.9568  -5.9525  -5.8750  -5.8696  -5.8524  -5.8347
    -5.8220  -5.7995  -5.7989  -5.7949  -5.7735  -5.7706  -5.7541  -5.7469
    -5.7345  -5.6964  -5.6534  -5.6492  -5.5255  -5.5041  -5.4628  -5.4624
    -5.2857  -5.2802  -5.2701  -5.2565  -5.2073  -5.1336  -5.1090  -5.0785
    -4.9963  -4.9822  -4.9807  -4.9665  -4.9522  -4.9456  -4.9351  -4.9205
    -4.8988  -4.8805  -4.8697  -4.8534  -4.8465  -4.8385  -4.8140  -4.8054
    -4.7890  -4.7577  -4.7461  -4.6975  -4.6937  -4.6887  -4.6561  -4.6338
    -4.6165  -4.6148  -4.5886  -4.5591  -4.5509  -4.5059  -4.4318  -4.4230
    -4.4168  -4.3951  -4.3943  -4.3817  -4.3661  -4.3644  -4.3354  -4.3337
    -4.3078  -4.2929  -4.2901  -4.2342  -4.2254  -4.2229  -4.1900  -4.1863
    -4.1732  -4.1611  -4.1416  -4.1166  -4.1058  -4.0977  -4.0792  -4.0631
    -4.0474  -4.0467  -4.0283  -4.0170  -4.0023  -3.9917  -3.9723  -3.9653
    -3.9527  -3.9302  -3.8978  -3.8878  -3.8652  -3.8499  -3.8356  -3.7988
    -3.7935  -3.7826  -3.7551  -3.7224  -3.7176  -3.7005  -3.6927  -3.6656
    -3.6283  -3.6165  -3.5898  -3.5568  -3.5400  -3.5334  -3.5206  -3.5008
    -3.4958  -3.4694  -3.4194  -3.3820  -3.3651  -3.3591  -3.3212  -3.2979
    -3.2794  -3.2692  -3.2542  -3.2060  -3.1733  -3.1670  -3.1507  -3.1506
    -3.1185  -3.0998  -3.0892  -3.0884  -3.0728  -3.0700  -3.0572  -3.0264
    -3.0150  -3.0040  -3.0010  -2.9961  -2.9759  -2.9725  -2.9563  -2.9194
    -2.8985  -2.8963  -2.8590  -2.8545  -2.8386  -2.8157  -2.7981  -2.7650
    -2.7584  -2.7487  -2.6956  -2.6808  -2.6715  -2.6538  -2.6158  -2.6042
    -2.6008  -2.5925  -2.5538  -2.5448  -2.4711  -2.4689  -2.4243  -2.3937
    -2.2765  -2.2612  -2.2313  -2.2268  -2.1656  -2.1505  -2.0767  -2.0434
    -2.0362  -2.0203  -2.0199  -2.0036  -1.9845  -1.9162  -1.8741  -1.8535
    -1.8496  -1.8118  -1.8054  -1.7997  -1.7709  -1.7587  -1.7506  -1.7075
    -1.6857  -1.6772  -1.6570  -1.6469  -1.6465  -1.5339  -1.5184  -1.4571
    -1.0449  -1.0413  -0.9624  -0.9592  -0.8672  -0.8624  -0.8170  -0.8082
    -0.6902  -0.6709  -0.6532  -0.5775  -0.5290  -0.5206  -0.4990  -0.4774
    -0.4063  -0.4020  -0.3729  -0.3564  -0.3166  -0.2746  -0.2423  -0.2322
    -0.2260  -0.1799  -0.1692  -0.1596  -0.1121  -0.1010  -0.0669  -0.0006
     0.0480   0.0558   0.0706   0.0722   0.1988   0.2033   0.2236   0.2584
     0.9042   0.9317   1.0617   1.0874   1.1038   1.1255   1.1415   1.1592
     1.2107   1.2284   1.2460   1.3336   1.3888   1.4064   1.4435   1.5713

          k =-0.5000 0.1450 0.0540 ( 58560 PWs)   bands (ev):

   -20.5351 -20.5350 -20.4335 -20.4335 -20.3830 -20.3829 -20.3616 -20.3615
   -20.2789 -20.2709 -20.2438 -20.2437 -20.1450 -20.1409 -20.1363 -20.1362
   -19.3160 -19.3160 -19.1645 -19.1641 -19.1124 -19.1124 -19.0929 -19.0894
   -18.2123 -18.2097 -17.9836 -17.9835 -17.9446 -17.9446 -17.9327 -17.9327
   -15.4454 -15.4417 -15.2113 -15.2074 -15.1955 -15.1924 -15.1783 -15.1588
   -15.1022 -15.0796 -15.0464 -15.0453 -15.0024 -15.0014 -14.9192 -14.9118
   -13.8887 -13.8879 -13.6873 -13.6741 -13.6687 -13.6573 -13.6244 -13.5916
   -13.1424 -13.1326 -12.9674 -12.9562 -12.9131 -12.8987 -12.8688 -12.8609
   -12.8550 -12.8391 -12.6187 -12.6177 -12.5921 -12.5911 -12.5504 -12.5424
   -12.4361 -12.4254 -12.4175 -12.4138 -12.4012 -12.4008 -12.3072 -12.3040
   -12.2160 -12.1906 -12.1886 -12.1623 -12.1481 -12.1246 -12.1119 -12.1031
   -12.0952 -12.0455 -11.8465 -11.8449 -11.7963 -11.7960 -11.7607 -11.7597
   -11.1449 -11.1325 -11.0286 -11.0255 -10.8710 -10.8602 -10.8508 -10.8414
   -10.8057 -10.7872 -10.7342 -10.7236 -10.6959 -10.6858 -10.6149 -10.5837
   -10.0044  -9.9832  -9.8170  -9.8149  -9.7763  -9.7661  -9.7444  -9.7214
    -9.3426  -9.3290  -9.1841  -9.1698  -9.1511  -9.1505  -9.1214  -9.1012
    -9.0687  -9.0327  -8.8892  -8.8758  -8.8671  -8.8565  -8.8517  -8.8433
    -8.5183  -8.4777  -8.4082  -8.3939  -8.3841  -8.3441  -8.2811  -8.2482
    -8.2462  -8.2068  -8.0918  -8.0095  -7.9906  -7.9857  -7.9827  -7.9432
    -7.6235  -7.5125  -7.4059  -7.3526  -7.3417  -7.3291  -7.3212  -7.3141
    -7.2055  -7.1226  -7.0252  -7.0231  -6.9606  -6.9402  -6.9300  -6.9298
    -6.9244  -6.9107  -6.8777  -6.8772  -6.8537  -6.8383  -6.7430  -6.7411
    -6.6463  -6.6350  -6.5094  -6.5055  -6.4815  -6.4745  -6.4443  -6.3067
    -6.2838  -6.2597  -6.1495  -6.1457  -6.0930  -6.0472  -6.0217  -5.9963
    -5.9855  -5.9799  -5.9608  -5.9607  -5.8811  -5.8538  -5.8318  -5.8285
    -5.8135  -5.7821  -5.7786  -5.7664  -5.7648  -5.7343  -5.7257  -5.7185
    -5.7067  -5.7017  -5.6905  -5.6831  -5.5192  -5.5068  -5.3791  -5.3728
    -5.3242  -5.3045  -5.2962  -5.2601  -5.2330  -5.1228  -5.1208  -5.0709
    -4.9983  -4.9931  -4.9720  -4.9621  -4.9475  -4.9420  -4.9346  -4.8961
    -4.8960  -4.8877  -4.8639  -4.8607  -4.8467  -4.8327  -4.8212  -4.7967
    -4.7758  -4.7532  -4.7509  -4.7235  -4.6897  -4.6552  -4.6468  -4.6087
    -4.6024  -4.5870  -4.5728  -4.5500  -4.4566  -4.4489  -4.4359  -4.4220
    -4.3887  -4.3794  -4.3746  -4.3579  -4.3546  -4.3517  -4.3334  -4.3262
    -4.2867  -4.2854  -4.2655  -4.2459  -4.2273  -4.2208  -4.2157  -4.1923
    -4.1825  -4.1811  -4.1284  -4.1121  -4.1054  -4.0950  -4.0860  -4.0836
    -4.0775  -4.0630  -4.0374  -4.0361  -4.0244  -4.0231  -3.9820  -3.9746
    -3.9456  -3.9266  -3.9236  -3.8896  -3.8577  -3.8469  -3.8229  -3.8098
    -3.7737  -3.7692  -3.7441  -3.7362  -3.6993  -3.6949  -3.6862  -3.6784
    -3.6593  -3.6403  -3.6300  -3.5856  -3.5757  -3.5637  -3.5379  -3.5033
    -3.4829  -3.4632  -3.4175  -3.3951  -3.3712  -3.3593  -3.3521  -3.3338
    -3.3216  -3.2904  -3.2784  -3.2479  -3.2161  -3.1923  -3.1596  -3.1509
    -3.1367  -3.1239  -3.1030  -3.0949  -3.0841  -3.0760  -3.0555  -3.0260
    -3.0043  -3.0018  -2.9804  -2.9793  -2.9526  -2.9453  -2.9429  -2.9018
    -2.9002  -2.8796  -2.8615  -2.8449  -2.8310  -2.8284  -2.8037  -2.7653
    -2.7623  -2.7341  -2.7137  -2.6616  -2.6584  -2.6454  -2.6104  -2.6055
    -2.6006  -2.5961  -2.5551  -2.5486  -2.4864  -2.4764  -2.4102  -2.3892
    -2.2866  -2.2830  -2.2019  -2.2010  -2.1745  -2.1620  -2.0980  -2.0776
    -2.0735  -2.0348  -1.9935  -1.9861  -1.9510  -1.9203  -1.8693  -1.8632
    -1.8487  -1.8469  -1.8375  -1.8187  -1.8094  -1.7806  -1.7396  -1.7164
    -1.6983  -1.6755  -1.6620  -1.6342  -1.6276  -1.5399  -1.5152  -1.4665
    -1.0166  -1.0039  -0.9562  -0.9555  -0.8517  -0.8454  -0.8399  -0.7732
    -0.7524  -0.7433  -0.5888  -0.5400  -0.5216  -0.5017  -0.4809  -0.4736
    -0.4400  -0.4183  -0.4126  -0.3147  -0.2833  -0.2556  -0.2414  -0.2354
    -0.2083  -0.1669  -0.1623  -0.1394  -0.1248  -0.1232  -0.0683   0.0262
     0.0495   0.0544   0.0676   0.0710   0.2025   0.2077   0.2424   0.2538
     0.9202   0.9369   1.0496   1.0889   1.0956   1.1227   1.1488   1.1757
     1.2192   1.2295   1.2727   1.3312   1.3409   1.4312   1.4512   1.5596

          k =-0.5000-0.1924 0.0853 ( 58584 PWs)   bands (ev):

   -20.5351 -20.5350 -20.4335 -20.4335 -20.3830 -20.3829 -20.3616 -20.3616
   -20.2789 -20.2709 -20.2438 -20.2437 -20.1450 -20.1409 -20.1363 -20.1362
   -19.3160 -19.3160 -19.1645 -19.1641 -19.1124 -19.1124 -19.0928 -19.0894
   -18.2123 -18.2097 -17.9836 -17.9835 -17.9446 -17.9446 -17.9327 -17.9327
   -15.4453 -15.4418 -15.2112 -15.2072 -15.1958 -15.1922 -15.1711 -15.1687
   -15.0943 -15.0836 -15.0492 -15.0435 -15.0061 -14.9978 -14.9201 -14.9119
   -13.8892 -13.8874 -13.6827 -13.6777 -13.6677 -13.6587 -13.6203 -13.5930
   -13.1411 -13.1340 -12.9671 -12.9552 -12.9131 -12.8866 -12.8796 -12.8661
   -12.8583 -12.8367 -12.6149 -12.6143 -12.5926 -12.5899 -12.5471 -12.5452
   -12.4367 -12.4258 -12.4161 -12.4150 -12.4020 -12.4004 -12.3071 -12.3040
   -12.2166 -12.2015 -12.1898 -12.1606 -12.1431 -12.1258 -12.1131 -12.1028
   -12.0980 -12.0427 -11.8463 -11.8453 -11.7970 -11.7956 -11.7652 -11.7610
   -11.1475 -11.1294 -11.0283 -11.0256 -10.8673 -10.8668 -10.8634 -10.8472
   -10.8064 -10.7875 -10.7330 -10.7248 -10.6950 -10.6866 -10.5932 -10.5677
    -9.9956  -9.9912  -9.8164  -9.8128  -9.7742  -9.7659  -9.7042  -9.7027
    -9.3399  -9.3314  -9.1943  -9.1588  -9.1529  -9.1426  -9.1247  -9.1126
    -9.1051  -9.0898  -8.8985  -8.8915  -8.8889  -8.8703  -8.8529  -8.8454
    -8.5169  -8.4807  -8.4054  -8.3990  -8.3795  -8.3434  -8.2686  -8.2236
    -8.2184  -8.1895  -8.0954  -8.0055  -7.9859  -7.9817  -7.9794  -7.9420
    -7.6198  -7.5172  -7.4042  -7.3464  -7.3436  -7.3314  -7.3047  -7.2928
    -7.2058  -7.1256  -7.0290  -7.0242  -6.9560  -6.9328  -6.9319  -6.9274
    -6.9133  -6.9065  -6.8815  -6.8722  -6.8484  -6.8304  -6.7802  -6.7682
    -6.6268  -6.6224  -6.5132  -6.4939  -6.4939  -6.4734  -6.4500  -6.3102
    -6.2799  -6.2684  -6.1558  -6.1441  -6.0911  -6.0404  -6.0342  -5.9791
    -5.9732  -5.9653  -5.9540  -5.9455  -5.8830  -5.8603  -5.8381  -5.8200
    -5.8182  -5.7936  -5.7794  -5.7766  -5.7633  -5.7545  -5.7514  -5.7440
    -5.7260  -5.7240  -5.7079  -5.7028  -5.5267  -5.4992  -5.4718  -5.4550
    -5.2839  -5.2824  -5.2814  -5.2025  -5.1841  -5.1211  -5.1158  -5.0780
    -4.9912  -4.9909  -4.9827  -4.9585  -4.9447  -4.9364  -4.9236  -4.9028
    -4.8878  -4.8794  -4.8524  -4.8460  -4.8397  -4.8149  -4.8085  -4.7841
    -4.7714  -4.7473  -4.7472  -4.7231  -4.6735  -4.6340  -4.6301  -4.6238
    -4.5835  -4.5814  -4.5454  -4.5377  -4.4611  -4.4529  -4.4288  -4.4281
    -4.3912  -4.3858  -4.3733  -4.3730  -4.3442  -4.3277  -4.3177  -4.3091
    -4.2878  -4.2782  -4.2575  -4.2471  -4.2393  -4.2233  -4.2177  -4.1988
    -4.1852  -4.1775  -4.1675  -4.1531  -4.1066  -4.0992  -4.0894  -4.0784
    -4.0732  -4.0670  -4.0373  -4.0284  -4.0251  -4.0229  -3.9966  -3.9823
    -3.9632  -3.9406  -3.9310  -3.9279  -3.8574  -3.8484  -3.8332  -3.8234
    -3.7971  -3.7703  -3.7460  -3.7324  -3.7087  -3.6882  -3.6623  -3.6557
    -3.6368  -3.6238  -3.6173  -3.5895  -3.5679  -3.5491  -3.5441  -3.5375
    -3.5001  -3.4969  -3.4822  -3.4272  -3.3848  -3.3554  -3.3478  -3.3281
    -3.3044  -3.2874  -3.2758  -3.2649  -3.1958  -3.1947  -3.1765  -3.1480
    -3.1287  -3.1117  -3.1086  -3.0943  -3.0604  -3.0405  -3.0258  -3.0140
    -3.0121  -3.0000  -2.9823  -2.9747  -2.9597  -2.9420  -2.9269  -2.9054
    -2.8910  -2.8795  -2.8654  -2.8395  -2.8377  -2.8158  -2.7841  -2.7722
    -2.7647  -2.7340  -2.7177  -2.6846  -2.6781  -2.6488  -2.6123  -2.6087
    -2.5998  -2.5852  -2.5516  -2.5490  -2.4684  -2.4628  -2.3982  -2.3971
    -2.3064  -2.2671  -2.2079  -2.2039  -2.1759  -2.1447  -2.0881  -2.0835
    -2.0719  -2.0392  -2.0126  -1.9915  -1.9582  -1.9014  -1.8777  -1.8694
    -1.8578  -1.8458  -1.8394  -1.8374  -1.8103  -1.7757  -1.7309  -1.7148
    -1.6744  -1.6660  -1.6524  -1.6383  -1.6369  -1.5350  -1.5225  -1.4672
    -1.0160  -1.0086  -0.9565  -0.9545  -0.8534  -0.8474  -0.8142  -0.8000
    -0.7594  -0.7381  -0.5906  -0.5418  -0.5416  -0.4841  -0.4737  -0.4725
    -0.4355  -0.4172  -0.3819  -0.3806  -0.2938  -0.2644  -0.2309  -0.2160
    -0.1909  -0.1756  -0.1653  -0.1444  -0.1396  -0.0872  -0.0700   0.0008
     0.0506   0.0552   0.0678   0.0709   0.2029   0.2066   0.2443   0.2485
     0.9210   0.9339   1.0585   1.0902   1.0949   1.1132   1.1297   1.1844
     1.2170   1.2296   1.2546   1.3765   1.3782   1.4152   1.4605   1.5640

!    total energy              =   -2744.29764141 Ry
     Harris-Foulkes estimate   =   -2744.29764145 Ry
     estimated scf accuracy    <       0.00000004 Ry

     The total energy is the sum of the following terms:

     one-electron contribution =   -2337.06512521 Ry
     hartree contribution      =    1477.73761705 Ry
     xc contribution           =    -820.83812541 Ry
     ewald contribution        =   -1062.68642436 Ry
     Dispersion Correction     =      -1.44558349 Ry

     convergence has been achieved in  22 iterations

     Forces acting on atoms (Ry/au):

     atom    1 type  1   force =    -0.00017759    0.00001195   -0.00065153
     atom    2 type  1   force =     0.00017759   -0.00001195    0.00065153
     atom    3 type  1   force =    -0.00025743    0.00023599   -0.00023939
     atom    4 type  1   force =     0.00025743   -0.00023599    0.00023939
     atom    5 type  1   force =     0.00025393    0.00009692   -0.00012826
     atom    6 type  1   force =    -0.00025393   -0.00009692    0.00012826
     atom    7 type  1   force =     0.00021922   -0.00002095   -0.00000296
     atom    8 type  1   force =    -0.00021922    0.00002095    0.00000296
     atom    9 type  1   force =    -0.00014317   -0.00008851   -0.00099281
     atom   10 type  1   force =     0.00014317    0.00008851    0.00099281
     atom   11 type  1   force =    -0.00027343    0.00040174   -0.00070628
     atom   12 type  1   force =     0.00027343   -0.00040174    0.00070628
     atom   13 type  1   force =    -0.00015123    0.00025168    0.00044103
     atom   14 type  1   force =     0.00015123   -0.00025168   -0.00044103
     atom   15 type  1   force =     0.00013875    0.00001145   -0.00082381
     atom   16 type  1   force =    -0.00013875   -0.00001145    0.00082381
     atom   17 type  1   force =    -0.00026012   -0.00027114   -0.00054320
     atom   18 type  1   force =     0.00026012    0.00027114    0.00054320
     atom   19 type  1   force =    -0.00034122   -0.00014024    0.00005367
     atom   20 type  1   force =     0.00034122    0.00014024   -0.00005367
     atom   21 type  1   force =    -0.00012127    0.00008648   -0.00011492
     atom   22 type  1   force =     0.00012127   -0.00008648    0.00011492
     atom   23 type  1   force =    -0.00013325    0.00003442   -0.00003744
     atom   24 type  1   force =     0.00013325   -0.00003442    0.00003744
     atom   25 type  1   force =    -0.00048014    0.00024117    0.00002625
     atom   26 type  1   force =     0.00048014   -0.00024117   -0.00002625
     atom   27 type  1   force =     0.00048690   -0.00039938    0.00020243
     atom   28 type  1   force =    -0.00048690    0.00039938   -0.00020243
     atom   29 type  1   force =    -0.00093419    0.00000321   -0.00047140
     atom   30 type  1   force =     0.00093419   -0.00000321    0.00047140
     atom   31 type  1   force =     0.00000216   -0.00005640    0.00078547
     atom   32 type  1   force =    -0.00000216    0.00005640   -0.00078547
     atom   33 type  1   force =     0.00032692   -0.00024044   -0.00038147
     atom   34 type  1   force =    -0.00032692    0.00024044    0.00038147
     atom   35 type  1   force =    -0.00001474   -0.00031276   -0.00047300
     atom   36 type  1   force =     0.00001474    0.00031276    0.00047300
     atom   37 type  1   force =     0.00013832   -0.00009666    0.00024591
     atom   38 type  1   force =    -0.00013832    0.00009666   -0.00024591
     atom   39 type  1   force =     0.00030947   -0.00026373   -0.00001360
     atom   40 type  1   force =    -0.00030947    0.00026373    0.00001360
     atom   41 type  1   force =    -0.00008835    0.00017147   -0.00017495
     atom   42 type  1   force =     0.00008835   -0.00017147    0.00017495
     atom   43 type  1   force =    -0.00050764    0.00031726    0.00037706
     atom   44 type  1   force =     0.00050764   -0.00031726   -0.00037706
     atom   45 type  1   force =    -0.00033687    0.00042824    0.00058452
     atom   46 type  1   force =     0.00033687   -0.00042824   -0.00058452
     atom   47 type  1   force =     0.00008438    0.00010631    0.00070687
     atom   48 type  1   force =    -0.00008438   -0.00010631   -0.00070687
     atom   49 type  1   force =     0.00041043    0.00002291   -0.00054934
     atom   50 type  1   force =    -0.00041043   -0.00002291    0.00054934
     atom   51 type  1   force =    -0.00021871    0.00008187   -0.00016987
     atom   52 type  1   force =     0.00021871   -0.00008187    0.00016987
     atom   53 type  1   force =     0.00014007    0.00004000    0.00008097
     atom   54 type  1   force =    -0.00014007   -0.00004000   -0.00008097
     atom   55 type  1   force =    -0.00024904   -0.00001628   -0.00005315
     atom   56 type  1   force =     0.00024904    0.00001628    0.00005315
     atom   57 type  1   force =     0.00003085   -0.00019095   -0.00023091
     atom   58 type  1   force =    -0.00003085    0.00019095    0.00023091
     atom   59 type  1   force =    -0.00019173    0.00009249   -0.00048470
     atom   60 type  1   force =     0.00019173   -0.00009249    0.00048470
     atom   61 type  1   force =     0.00016904   -0.00005084    0.00019018
     atom   62 type  1   force =    -0.00016904    0.00005084   -0.00019018
     atom   63 type  1   force =    -0.00018702   -0.00004478   -0.00047389
     atom   64 type  1   force =     0.00018702    0.00004478    0.00047389
     atom   65 type  1   force =     0.00021110   -0.00012183    0.00013003
     atom   66 type  1   force =    -0.00021110    0.00012183   -0.00013003
     atom   67 type  1   force =    -0.00036281    0.00016181   -0.00005196
     atom   68 type  1   force =     0.00036281   -0.00016181    0.00005196
     atom   69 type  1   force =    -0.00032727    0.00017969    0.00005160
     atom   70 type  1   force =     0.00032727   -0.00017969   -0.00005160
     atom   71 type  1   force =     0.00009894   -0.00000756    0.00021181
     atom   72 type  1   force =    -0.00009894    0.00000756   -0.00021181
     atom   73 type  1   force =     0.00023353    0.00062623    0.00056094
     atom   74 type  1   force =    -0.00023353   -0.00062623   -0.00056094
     atom   75 type  1   force =     0.00024588   -0.00026625    0.00049627
     atom   76 type  1   force =    -0.00024588    0.00026625   -0.00049627
     atom   77 type  1   force =     0.00069107    0.00021255    0.00079693
     atom   78 type  1   force =    -0.00069107   -0.00021255   -0.00079693
     atom   79 type  1   force =     0.00025577   -0.00046944   -0.00096854
     atom   80 type  1   force =    -0.00025577    0.00046944    0.00096854
     atom   81 type  1   force =    -0.00016187    0.00009499   -0.00024320
     atom   82 type  1   force =     0.00016187   -0.00009499    0.00024320
     atom   83 type  1   force =    -0.00027417   -0.00007510   -0.00019761
     atom   84 type  1   force =     0.00027417    0.00007510    0.00019761
     atom   85 type  1   force =     0.00032077   -0.00010931    0.00015059
     atom   86 type  1   force =    -0.00032077    0.00010931   -0.00015059
     atom   87 type  1   force =    -0.00082037    0.00013119    0.00003616
     atom   88 type  1   force =     0.00082037   -0.00013119   -0.00003616
     atom   89 type  1   force =    -0.00020245    0.00083770    0.00003403
     atom   90 type  1   force =     0.00020245   -0.00083770   -0.00003403
     atom   91 type  1   force =    -0.00006954   -0.00013973    0.00033212
     atom   92 type  1   force =     0.00006954    0.00013973   -0.00033212
     atom   93 type  1   force =     0.00008110   -0.00026098    0.00034982
     atom   94 type  1   force =    -0.00008110    0.00026098   -0.00034982
     atom   95 type  1   force =     0.00004883   -0.00042694   -0.00053192
     atom   96 type  1   force =    -0.00004883    0.00042694    0.00053192
     atom   97 type  1   force =    -0.00001947   -0.00001094    0.00078448
     atom   98 type  1   force =     0.00001947    0.00001094   -0.00078448
     atom   99 type  1   force =     0.00018434    0.00064740   -0.00009093
     atom  100 type  1   force =    -0.00018434   -0.00064740    0.00009093
     atom  101 type  1   force =    -0.00001021   -0.00052625   -0.00010036
     atom  102 type  1   force =     0.00001021    0.00052625    0.00010036
     atom  103 type  1   force =     0.00013577    0.00017239   -0.00003742
     atom  104 type  1   force =    -0.00013577   -0.00017239    0.00003742
     atom  105 type  1   force =    -0.00001056   -0.00016553   -0.00037446
     atom  106 type  1   force =     0.00001056    0.00016553    0.00037446
     atom  107 type  1   force =     0.00018795    0.00030251   -0.00014852
     atom  108 type  1   force =    -0.00018795   -0.00030251    0.00014852
     atom  109 type  1   force =     0.00029519   -0.00000793    0.00000209
     atom  110 type  1   force =    -0.00029519    0.00000793   -0.00000209
     atom  111 type  1   force =     0.00002608    0.00033560    0.00023850
     atom  112 type  1   force =    -0.00002608   -0.00033560   -0.00023850
     atom  113 type  1   force =     0.00048833    0.00075871    0.00017743
     atom  114 type  1   force =    -0.00048833   -0.00075871   -0.00017743
     atom  115 type  1   force =     0.00023106   -0.00083287    0.00071411
     atom  116 type  1   force =    -0.00023106    0.00083287   -0.00071411
     atom  117 type  1   force =    -0.00019645   -0.00063013    0.00001961
     atom  118 type  1   force =     0.00019645    0.00063013   -0.00001961
     atom  119 type  1   force =    -0.00032338   -0.00061561   -0.00011296
     atom  120 type  1   force =     0.00032338    0.00061561    0.00011296
     atom  121 type  1   force =    -0.00005800    0.00052321   -0.00056062
     atom  122 type  1   force =     0.00005800   -0.00052321    0.00056062
     atom  123 type  1   force =    -0.00005745    0.00009770    0.00006355
     atom  124 type  1   force =     0.00005745   -0.00009770   -0.00006355
     atom  125 type  1   force =     0.00034577    0.00015295   -0.00013666
     atom  126 type  1   force =    -0.00034577   -0.00015295    0.00013666
     atom  127 type  1   force =    -0.00001222    0.00005802   -0.00009045
     atom  128 type  1   force =     0.00001222   -0.00005802    0.00009045
     atom  129 type  1   force =     0.00015513    0.00028761    0.00007749
     atom  130 type  1   force =    -0.00015513   -0.00028761   -0.00007749
     atom  131 type  1   force =    -0.00030603    0.00019016   -0.00014748
     atom  132 type  1   force =     0.00030603   -0.00019016    0.00014748
     atom  133 type  1   force =     0.00042296   -0.00003851    0.00022394
     atom  134 type  1   force =    -0.00042296    0.00003851   -0.00022394
     atom  135 type  1   force =    -0.00002749    0.00039680    0.00010325
     atom  136 type  1   force =     0.00002749   -0.00039680   -0.00010325
     atom  137 type  1   force =    -0.00000861   -0.00024611    0.00004210
     atom  138 type  1   force =     0.00000861    0.00024611   -0.00004210
     atom  139 type  1   force =    -0.00016413    0.00030638   -0.00029596
     atom  140 type  1   force =     0.00016413   -0.00030638    0.00029596
     atom  141 type  1   force =    -0.00022018   -0.00004799   -0.00025138
     atom  142 type  1   force =     0.00022018    0.00004799    0.00025138
     atom  143 type  1   force =     0.00018978   -0.00021813    0.00000456
     atom  144 type  1   force =    -0.00018978    0.00021813   -0.00000456
     atom  145 type  2   force =    -0.00039669   -0.00000035    0.00014520
     atom  146 type  2   force =     0.00039669    0.00000035   -0.00014520
     atom  147 type  2   force =     0.00021701    0.00019354    0.00051780
     atom  148 type  2   force =    -0.00021701   -0.00019354   -0.00051780
     atom  149 type  2   force =     0.00011830   -0.00013159   -0.00033766
     atom  150 type  2   force =    -0.00011830    0.00013159    0.00033766
     atom  151 type  2   force =    -0.00024829    0.00024449    0.00001982
     atom  152 type  2   force =     0.00024829   -0.00024449   -0.00001982
     atom  153 type  2   force =    -0.00048802    0.00010617   -0.00032589
     atom  154 type  2   force =     0.00048802   -0.00010617    0.00032589
     atom  155 type  2   force =    -0.00006385   -0.00013194   -0.00018787
     atom  156 type  2   force =     0.00006385    0.00013194    0.00018787
     atom  157 type  2   force =    -0.00018324   -0.00001961   -0.00040023
     atom  158 type  2   force =     0.00018324    0.00001961    0.00040023
     atom  159 type  2   force =    -0.00003804   -0.00008966   -0.00001457
     atom  160 type  2   force =     0.00003804    0.00008966    0.00001457
     atom  161 type  2   force =    -0.00003815   -0.00003898   -0.00019339
     atom  162 type  2   force =     0.00003815    0.00003898    0.00019339
     atom  163 type  2   force =     0.00065289   -0.00023079    0.00006310
     atom  164 type  2   force =    -0.00065289    0.00023079   -0.00006310
     atom  165 type  2   force =    -0.00046802   -0.00008406   -0.00010024
     atom  166 type  2   force =     0.00046802    0.00008406    0.00010024
     atom  167 type  2   force =     0.00001648   -0.00012977   -0.00032462
     atom  168 type  2   force =    -0.00001648    0.00012977    0.00032462
     atom  169 type  2   force =     0.00006752    0.00019751    0.00037330
     atom  170 type  2   force =    -0.00006752   -0.00019751   -0.00037330
     atom  171 type  2   force =     0.00008261    0.00015520   -0.00047482
     atom  172 type  2   force =    -0.00008261   -0.00015520    0.00047482
     atom  173 type  2   force =     0.00002574   -0.00002546    0.00024768
     atom  174 type  2   force =    -0.00002574    0.00002546   -0.00024768
     atom  175 type  2   force =    -0.00023199   -0.00027070   -0.00006378
     atom  176 type  2   force =     0.00023199    0.00027070    0.00006378
     atom  177 type  2   force =     0.00019076   -0.00012497   -0.00041407
     atom  178 type  2   force =    -0.00019076    0.00012497    0.00041407
     atom  179 type  2   force =    -0.00041455    0.00029571    0.00011451
     atom  180 type  2   force =     0.00041455   -0.00029571   -0.00011451
     atom  181 type  2   force =     0.00025483   -0.00009603   -0.00022575
     atom  182 type  2   force =    -0.00025483    0.00009603    0.00022575
     atom  183 type  2   force =     0.00012393   -0.00014412    0.00019011
     atom  184 type  2   force =    -0.00012393    0.00014412   -0.00019011
     atom  185 type  2   force =    -0.00001581   -0.00026699    0.00010371
     atom  186 type  2   force =     0.00001581    0.00026699   -0.00010371
     atom  187 type  2   force =     0.00044702   -0.00003303   -0.00015418
     atom  188 type  2   force =    -0.00044702    0.00003303    0.00015418
     atom  189 type  2   force =    -0.00056716    0.00019612   -0.00007785
     atom  190 type  2   force =     0.00056716   -0.00019612    0.00007785
     atom  191 type  2   force =    -0.00002387   -0.00012211   -0.00033736
     atom  192 type  2   force =     0.00002387    0.00012211    0.00033736
     atom  193 type  2   force =     0.00017805    0.00006933    0.00033488
     atom  194 type  2   force =    -0.00017805   -0.00006933   -0.00033488
     atom  195 type  2   force =     0.00006138    0.00006336   -0.00006227
     atom  196 type  2   force =    -0.00006138   -0.00006336    0.00006227
     atom  197 type  2   force =    -0.00016987    0.00015853    0.00019177
     atom  198 type  2   force =     0.00016987   -0.00015853   -0.00019177
     atom  199 type  2   force =     0.00012013   -0.00011007   -0.00001179
     atom  200 type  2   force =    -0.00012013    0.00011007    0.00001179
     atom  201 type  2   force =    -0.00057284    0.00003258   -0.00013729
     atom  202 type  2   force =     0.00057284   -0.00003258    0.00013729
     atom  203 type  2   force =    -0.00021220    0.00011567    0.00007939
     atom  204 type  2   force =     0.00021220   -0.00011567   -0.00007939
     atom  205 type  2   force =     0.00001402    0.00018608   -0.00021618
     atom  206 type  2   force =    -0.00001402   -0.00018608    0.00021618
     atom  207 type  2   force =    -0.00013162    0.00012314    0.00060005
     atom  208 type  2   force =     0.00013162   -0.00012314   -0.00060005
     atom  209 type  2   force =    -0.00015668   -0.00009443   -0.00029655
     atom  210 type  2   force =     0.00015668    0.00009443    0.00029655
     atom  211 type  2   force =     0.00008115   -0.00017151   -0.00027153
     atom  212 type  2   force =    -0.00008115    0.00017151    0.00027153
     atom  213 type  2   force =    -0.00012769    0.00012704    0.00036470
     atom  214 type  2   force =     0.00012769   -0.00012704   -0.00036470
     atom  215 type  2   force =     0.00024579   -0.00017350   -0.00029551
     atom  216 type  2   force =    -0.00024579    0.00017350    0.00029551
     atom  217 type  2   force =     0.00029861   -0.00048998   -0.00023077
     atom  218 type  2   force =    -0.00029861    0.00048998    0.00023077
     atom  219 type  2   force =     0.00011965    0.00104265   -0.00024824
     atom  220 type  2   force =    -0.00011965   -0.00104265    0.00024824
     atom  221 type  2   force =    -0.00061238   -0.00003532    0.00024414
     atom  222 type  2   force =     0.00061238    0.00003532   -0.00024414
     atom  223 type  2   force =    -0.00048021   -0.00085301    0.00045805
     atom  224 type  2   force =     0.00048021    0.00085301   -0.00045805
     atom  225 type  2   force =    -0.00032027   -0.00067395   -0.00030307
     atom  226 type  2   force =     0.00032027    0.00067395    0.00030307
     atom  227 type  2   force =     0.00028857    0.00052375    0.00014781
     atom  228 type  2   force =    -0.00028857   -0.00052375   -0.00014781
     atom  229 type  2   force =     0.00057131    0.00071428   -0.00006371
     atom  230 type  2   force =    -0.00057131   -0.00071428    0.00006371
     atom  231 type  2   force =     0.00034491    0.00025074   -0.00010248
     atom  232 type  2   force =    -0.00034491   -0.00025074    0.00010248
     atom  233 type  2   force =     0.00020966    0.00003146   -0.00033718
     atom  234 type  2   force =    -0.00020966   -0.00003146    0.00033718
     atom  235 type  2   force =     0.00004881    0.00061417   -0.00034793
     atom  236 type  2   force =    -0.00004881   -0.00061417    0.00034793
     atom  237 type  2   force =    -0.00023329   -0.00026255    0.00015270
     atom  238 type  2   force =     0.00023329    0.00026255   -0.00015270
     atom  239 type  2   force =    -0.00026729   -0.00005847   -0.00008520
     atom  240 type  2   force =     0.00026729    0.00005847    0.00008520
     atom  241 type  2   force =     0.00002027   -0.00030091    0.00014578
     atom  242 type  2   force =    -0.00002027    0.00030091   -0.00014578
     atom  243 type  2   force =    -0.00023127    0.00009071   -0.00071024
     atom  244 type  2   force =     0.00023127   -0.00009071    0.00071024
     atom  245 type  2   force =    -0.00020823    0.00022912    0.00009009
     atom  246 type  2   force =     0.00020823   -0.00022912   -0.00009009
     atom  247 type  2   force =     0.00022147    0.00046599    0.00014565
     atom  248 type  2   force =    -0.00022147   -0.00046599   -0.00014565
     atom  249 type  2   force =     0.00013686    0.00025401   -0.00047749
     atom  250 type  2   force =    -0.00013686   -0.00025401    0.00047749
     atom  251 type  2   force =     0.00014298    0.00024891    0.00010594
     atom  252 type  2   force =    -0.00014298   -0.00024891   -0.00010594
     atom  253 type  2   force =     0.00015957    0.00027058   -0.00025081
     atom  254 type  2   force =    -0.00015957   -0.00027058    0.00025081
     atom  255 type  2   force =     0.00034394    0.00013716    0.00010689
     atom  256 type  2   force =    -0.00034394   -0.00013716   -0.00010689
     atom  257 type  2   force =     0.00006787    0.00048312   -0.00000857
     atom  258 type  2   force =    -0.00006787   -0.00048312    0.00000857
     atom  259 type  2   force =    -0.00018291    0.00005849   -0.00003808
     atom  260 type  2   force =     0.00018291   -0.00005849    0.00003808
     atom  261 type  2   force =    -0.00052386   -0.00019270   -0.00003216
     atom  262 type  2   force =     0.00052386    0.00019270    0.00003216
     atom  263 type  2   force =     0.00049180    0.00042634    0.00008857
     atom  264 type  2   force =    -0.00049180   -0.00042634   -0.00008857
     atom  265 type  2   force =     0.00044639   -0.00042119    0.00026529
     atom  266 type  2   force =    -0.00044639    0.00042119   -0.00026529
     atom  267 type  2   force =     0.00006164    0.00009460    0.00017282
     atom  268 type  2   force =    -0.00006164   -0.00009460   -0.00017282
     atom  269 type  2   force =    -0.00002498   -0.00030495    0.00005052
     atom  270 type  2   force =     0.00002498    0.00030495   -0.00005052
     atom  271 type  2   force =     0.00051111   -0.00025523    0.00024564
     atom  272 type  2   force =    -0.00051111    0.00025523   -0.00024564
[...]
     atom  310 type  3   force =     0.00009140   -0.00028867    0.00054301
     atom  311 type  3   force =    -0.00021037    0.00007277   -0.00067215
     atom  312 type  3   force =     0.00021037   -0.00007277    0.00067215
     atom  313 type  3   force =     0.00021857    0.00006634    0.00033464
     atom  314 type  3   force =    -0.00021857   -0.00006634   -0.00033464
     atom  315 type  3   force =     0.00011683   -0.00004214    0.00011453
     atom  316 type  3   force =    -0.00011683    0.00004214   -0.00011453
     atom  317 type  3   force =     0.00004139   -0.00018955    0.00032295
     atom  318 type  3   force =    -0.00004139    0.00018955   -0.00032295
     atom  319 type  3   force =    -0.00018250   -0.00001203   -0.00009427
     atom  320 type  3   force =     0.00018250    0.00001203    0.00009427
     atom  321 type  3   force =    -0.00085421    0.00037331    0.00015078
     atom  322 type  3   force =     0.00085421   -0.00037331   -0.00015078
     atom  323 type  3   force =    -0.00018346    0.00056979   -0.00015910
     atom  324 type  3   force =     0.00018346   -0.00056979    0.00015910
     atom  325 type  3   force =     0.00020678    0.00000431    0.00000019
     atom  326 type  3   force =    -0.00020678   -0.00000431   -0.00000019
     atom  327 type  3   force =    -0.00012765   -0.00014017    0.00017730
     atom  328 type  3   force =     0.00012765    0.00014017   -0.00017730

     Total force =     0.006301     Total SCF correction =     0.000037

     bfgs converged in   3 scf cycles and   2 bfgs steps
     (criteria: energy < 0.10E-03, force < 0.10E-02)

     End of BFGS Geometry Optimization

     Final energy   =   -2744.2978023082 Ry
Begin final coordinates

ATOMIC_POSITIONS (angstrom)
C       11.202430745   3.933599374  18.587805549
C        5.495937255  12.260055626   5.090015451
C        3.085430904   3.546101967  18.689949811
C       13.612937096  12.647554033   4.987871189
C        3.803235811   3.178364752  17.539138993
C       12.895132189  13.015291248   6.138682007
C        3.159572486   3.183887448  16.307264659
C       13.538795514  13.009768552   7.370556341
C       11.256241827   3.563914477  16.175529588
C        5.442126173  12.629741523   7.502291412
C       10.547162939   3.956620225  17.350372375
C        6.151205061  12.237034775   6.327448625
C        5.845339301   2.997131628  18.771401833
C       10.853027699  13.196524372   4.906419167
C       10.561753101   3.601804408  14.877890648
C        6.136614899  12.591850592   8.799930352
C       11.246812836   3.228042921  13.663598901
C        5.451555164  12.965612079  10.014222099
C       10.668994991   3.374099674  12.437663342
C        6.029373009  12.819556326  11.240157658
C       11.197225680   3.000814641  11.161204314
C        5.501142320  13.192840359  12.516616686
C        3.028119849   2.428791857  10.955518172
C       13.670248151  13.764864143  12.722303828
C        3.450670499   2.042579882   9.703732695
C       13.247698501  14.151076118  13.974088305
C        2.603821017   2.174832172   8.567572317
C       14.094547983  14.018823828  15.110249683
C       10.785479632   2.786391559   8.759625955
C        5.912888368  13.407263441  14.918195045
C       10.392018375   3.189744808  10.017136043
C        6.306349625  13.003911192  13.660684957
C        4.287888047   1.097580722   7.152440032
C       12.410480953  15.096075278  16.525381968
C        2.089752978   1.851358277   6.205277957
C       14.608615022  14.342296723  17.472543043
C       10.991949634  10.181600073   7.222398588
C        5.706418366   6.012055927  16.455422412
C        3.632764387   9.277856013   6.467495877
C       13.065604613   6.915799987  17.210325123
C        4.162521934   9.227969917   7.747855114
C       12.535846066   6.965685083  15.929965886
C        5.478434290   8.754379944   7.971996614
C       11.219933710   7.439276056  15.705824386
C        6.245406899   8.316618309   6.852846327
C       10.452960101   7.877036691  16.824974673
C        5.684736368   8.359716558   5.568191940
C       11.013631632   7.833939442  18.109629060
C        4.405573879   8.842296011   5.376033233
C       12.292795121   7.351359989  18.301788767
C        6.100916376   8.716790983   9.302112647
C       10.597451624   7.476864017  14.375708353
C        5.386820385   9.106002098  10.490865962
C       11.311547615   7.087652902  13.186954038
C        5.988971968   9.053207707  11.715286634
C       10.709396032   7.140448293  11.962535366
C        5.481430215   9.449819355  12.989448865
C       11.216937785   6.743835645  10.688372135
C        6.311298371   9.290616730  14.122807611
C       10.387069629   6.903038270   9.555013389
C        5.918582095   9.688217528  15.382652794
C       10.779785905   6.505437472   8.295168206
C        4.645374872  10.286022745  15.578832475
C       12.052993128   5.907633255   8.098988525
C       13.241204552  10.430325094  14.445042101
C        3.457163448   5.763330906   9.232778899
C       13.651493276  10.026794984  13.196560404
C        3.046874724   6.166861016  10.481260596
C       12.353031366  11.240028350  17.013019758
C        4.345336634   4.953627650   6.664801242
C        5.101248433  10.488587899  17.965661131
C       11.597119567   5.705068101   5.712159869
C        7.387196227   7.412423704  19.647231036
C        9.311172773   8.781232296   4.030589964
C        8.205765808   9.193487196  21.033093153
C        8.492602192   7.000167804   2.644727847
C        8.430868263   9.637829065  22.351402253
C        8.267500737   6.555826935   1.326418747
C        8.692387057  10.966673693  22.610848723
C        8.005980943   5.226982307   1.066972277
C        8.751929699  11.895958730  21.556688149
C        7.946438301   4.297697270   2.121132851
C        8.627644618  11.445613011  20.209086814
C        8.070724382   4.748041989   3.468734186
C        8.334429352  10.079668423  19.972925039
C        8.363938648   6.113987577   3.704895961
C        8.834687287  12.422401745  19.130400132
C        7.863680713   3.771254255   4.547420868
C        8.962813186  11.996761924  17.750719123
C        7.735554814   4.196894076   5.927101877
C        9.212653754  12.893852853  16.750547455
C        7.485715246   3.299802147   6.927273545
C        9.435300781  12.612633088  15.361642381
C        7.263067219   3.581022912   8.316178619
C        9.630331291  13.674679150  14.451264735
C        7.068037709   2.518976850   9.226556265
C        9.806353279  13.459886222  13.098087543
C        6.892014721   2.733768778  10.579733457
C        9.790911711  12.143808729  12.561568894
C        6.907456289   4.049846271  11.116252106
C        9.634260495  11.066913398  13.478050008
C        7.064107505   5.126741602  10.199770992
C        9.457313490  11.303875198  14.823268275
C        7.241054510   4.889780802   8.854552725
C        9.694577144  10.580215666  10.676550370
C        7.003790856   5.613439334  13.001270630
C       10.161675351  13.011632741  10.310794499
C        6.536692649   3.182022259  13.367026501
C        8.057396743  10.863180086   0.715900170
C        8.640971257   5.330475914  22.961920830
C       10.102849930  12.102953322   0.894950485
C        6.595518070   4.090702678  22.782870515
C       10.751542283  13.346719345   0.761818446
C        5.946826717   2.846935655  22.916002554
C       12.108694359  13.453742927   0.993913581
C        4.589673641   2.739912073  22.683908419
C       12.864862754  12.322371801   1.345573003
C        3.833505246   3.871283199  22.332247997
C       12.227290914  11.052459035   1.459763659
C        4.471077086   5.141195965  22.218057341
C       10.831226629  10.971078706   1.235962347
C        5.867141371   5.222576294  22.441858653
C        3.616119311   9.886253474   1.768775782
C       13.082248689   6.307401526  21.909045218
C        3.077888214   8.546078655   1.804264236
C       13.620479786   7.647577345  21.873556764
C        3.903768849   7.500330321   2.099970171
C       12.794599151   8.693325679  21.577850829
C        3.598836193   6.111372818   2.215293182
C       13.099532807  10.082283182  21.462527818
C        4.618119868   5.225696909   2.630072875
C       12.080248132  10.967959091  21.047747125
C        4.390998045   3.874930856   2.795998989
C       12.307369955  12.318725144  20.881822011
C        3.100384810   3.329179371   2.556991685
C       13.597983190  12.864475629  21.120829315
C        2.075365504   4.216342440   2.117029167
C       14.623003496  11.977313560  21.560790833
C        2.324179369   5.558825897   1.952002874
C       14.374188631  10.634829103  21.725817126
C        1.486674362   1.493526159   2.598423062
C       15.211693638  14.700129841  21.079397938
C        3.937157347   1.074906164   2.953518034
C       12.761210653  15.118749836  20.724302966
H       10.657665993   4.249671225  19.477639937
H        6.040702007  11.943984775   4.200181063
H        3.558413509   3.542171677  19.669862848
H       13.139954491  12.651484323   4.007958152
H        3.741778683   2.893098830  15.435470687
H       12.956589317  13.300556170   8.242350313
H        5.699885329   4.016350522  19.163720273
H       10.998482671  12.177305478   4.514100727
H        6.903456259   2.852205881  18.528593191
H        9.794911741  13.341450119   5.149227809
H        5.520759163   2.257663709  19.518945641
H       11.177608837  13.935991291   4.158875359
H        2.796780904   2.798315242  13.742040654
H       13.901587096  13.395340758   9.935780346
H        9.667966175   3.815980140  12.424026164
H        7.030401825  12.377675860  11.253794836
H        3.700090871   2.287653713  11.803292262
H       12.998277129  13.906001287  11.874528738
H        4.451613923   1.636857288   9.584383584
H       12.246754077  14.556797712  14.093437416
H       10.119820381   2.954344575   7.916723361
H        6.578547619  13.239311425  15.761097639
H        9.421477690   3.669107516  10.135581267
H        7.276890310  12.524548484  13.542239733
H        5.112373784   1.820377383   7.270689934
H       11.585995216  14.373278617  16.407131066
H        4.334769523   0.674046128   6.145540221
H       12.363599477  15.519609872  17.532281779
H        8.489535872  14.271188579   7.868290031
H        8.208832128   1.922467421  15.809529969
H        1.131913592   1.344777482   6.404447038
H       15.566454408  14.848877518  17.273373962
H        2.546339108   1.387393536   5.327512834
H       14.152028892  14.806262464  18.350308166
H        1.884529532   2.909439592   5.972647729
H       14.813838468  13.284216408  17.705173271
H       10.828256803   9.375631357   7.956168353
H        5.870111197   6.818023643  15.721651647
H       10.036424542  10.473714774   6.770532376
H        6.661943458   5.719940226  16.907288624
H       11.450767558  11.054097506   7.717419995
H        5.247600442   5.139557494  15.960402005
H       13.011033083   9.561234466   8.590807900
H        3.687334917   6.632421534  15.087013100
H        6.281333897   8.023784930   4.720039955
H       10.417034103   8.169871070  18.957780045
H        3.981015913   8.899345224   4.374848496
H       12.717352087   7.294309776  19.302971504
H        4.363034197   9.459521360  10.398642899
H       12.335334803   6.734134640  13.279178101
H        7.014084488   8.668235169  11.726046629
H        9.684283512   7.525419831  11.951774371
H        7.297610395   8.846234770  13.985776345
H        9.400757605   7.347421230   9.692044655
H        6.596418405   9.545124167  16.221282254
H       10.101949595   6.648530833   7.456538746
H       12.253633369  10.871126244  14.557730207
H        4.444734631   5.322529756   9.120090793
H       12.977875615  10.165255048  12.350682202
H        3.720492385   6.028400952  11.327138798
H       12.164691110  12.101347696  16.355502110
H        4.533676890   4.092307304   7.322318890
H       12.250522138  11.564426444  18.053687739
H        4.447845862   4.629229556   5.624133261
H       11.586462003  10.475114082  16.808061512
H        5.111905997   5.718541918   6.869759488
H        5.269457206   9.411025089  18.131850541
H       11.428910794   6.782630911   5.545970459
H       14.069705997  10.903989364  18.859320712
H        2.628662003   5.289665636   4.818500288
H        6.082683276  10.973973103  17.836293211
H       10.615684724   5.219682897   5.841527789
H        6.506193515   7.989804692  19.326935632
H       10.192174485   8.203851308   4.350885368
H        7.098491062   6.366067267  19.795250103
H        9.599877938   9.827588733   3.882570897
H        8.169049360   7.476753738  18.875810578
H        8.529318640   8.716901262   4.802010422
H        8.355049051   8.918459117  23.167324686
H        8.343318949   7.275195883   0.510496315
H        8.819650524  11.323392103  23.632344244
H        7.878717476   4.870263897   0.045476756
H        8.194463655   9.722437371  18.955144326
H        8.503904345   6.471218629   4.722676674
H        8.914980598  10.931032108  17.529456947
H        7.783387402   5.262623892   6.148364053
H        9.247205743  13.950084612  17.040773393
H        7.451162257   2.243571388   6.637047607
H        9.614549827  14.697396551  14.834062035
H        7.083818173   1.496259449   8.843758965
H        9.916829506  14.313938629  12.433822848
H        6.781538494   1.879716371  11.243998152
H        9.644466377  10.036369148  13.130101458
H        7.053901623   6.157286852  10.547719542
H        9.333609979  10.447921117  15.485591785
H        7.364758021   5.745733883   8.192229215
H       10.544907836   9.908963140  10.888440161
H        6.153460164   6.284691860  12.789380839
H        9.551313700  10.657777671   9.595700311
H        7.147055300   5.535877329  14.082120689
H        8.783746598  10.123473423  11.088943283
H        7.914621402   6.070182577  12.588876717
H        9.290883716  13.683536484  10.232272882
H        7.407484284   2.510118516  13.445547118
H       10.365654844  12.610107584   9.312778773
H        6.332714156   3.583548416  14.365041227
H       11.036163178  13.595728626  10.642018963
H        5.662205822   2.597926374  13.035802037
H        8.495679824  10.140942099   0.008023498
H        8.202688176   6.052713901  23.669797502
H        7.027459877  11.081899184   0.418323346
H        9.670908123   5.111756816  23.259496654
H        8.085036610  10.439007144   1.730294389
H        8.613331390   5.754647856  21.947526611
H        6.108445295   0.217089323   0.454119562
H       10.589922705  15.976565677  23.223701438
H        8.550609567   0.415506034   0.874751695
H        8.147758433  15.778148966  22.803068305
H       10.324816442  10.013978580   1.332352872
H        6.373551558   6.179676420  22.345467128
H       11.464924095   8.388588454   1.607520025
H        5.233443905   7.805067546  22.070300975
H        4.948638592   7.764202092   2.294640062
H       11.749730408   8.429452908  21.383180938
H        5.613111919   5.627686521   2.826600535
H       11.085256081  10.565968479  20.851220465
H        5.211477079   3.229007351   3.101449966
H       11.486889921  12.964647649  20.576370034
H       10.535604516   3.826802257   1.877624581
H        6.162764484  12.366853743  21.800196419
H       10.961757509   6.198969915   1.599585265
H        5.736610491   9.994686085  22.078235735
H        0.788348925   2.075570333   3.218118129
H       15.910019075  14.118085667  20.459703871
H        1.459105612   0.449451197   2.922249219
H       15.239262388  15.744203803  20.755571781
H        1.144499829   1.528228034   1.552242095
H       15.553868171  14.665426966  22.125578905
H        4.681747573   1.143909370   2.144933252
H       12.016620427  15.049745630  21.532887748
H        7.600382083  14.051780797   2.970653024
H        9.097985917   2.141875203  20.707166976
H        4.454158573   1.273965610   3.908249143
H       12.244209427  14.919690390  19.769570857
H        7.678972935   7.992494032   8.030768412
H        9.019395065   8.201160968  15.647053588
H        8.952690277  13.653794863  20.916550231
H        7.745677723   2.539861137   2.761270769
H        5.050560059  11.493511957   1.783992067
H       11.647806941   4.700143043  21.893828933
H        9.036398181   4.284539722  16.284674304
H        7.661969819  11.909116278   7.393146696
N        2.990405972   1.725978678   7.339064562
N       13.707962028  14.467677322  16.338757438
N       13.695217015  10.714701379  16.808940713
N        3.003150985   5.478954621   6.868880287
N        9.903907377  11.913598363  11.222984432
N        6.794460623   4.280057637  12.454836568
N        2.843794970   2.005786273   2.734692443
N       13.854573030  14.187869727  20.943128557
O        5.132138895   2.821035709  17.538551037
O       11.566229105  13.372620291   6.139269963
O        9.255458022   4.344892614  17.295537862
O        7.442909978  11.848762386   6.382283138
O        9.335759613   3.972397841  14.855443438
O        7.362608387  12.221258159   8.822377562
O       11.818414075   9.728943236   6.147760106
O        4.879953925   6.464711764  17.530060894
O        7.324100795   8.327928006   9.391898542
O        9.374268205   7.865727994  14.285923458
O        7.507973670   7.852835464   7.003880367
O        9.190395330   8.340820536  16.673940633
O        7.856131393   7.872777389  20.921699379
O        8.842236607   8.320877611   2.756121621
O        8.932547523  13.194799631  21.850294849
O        7.765820477   2.998855369   1.827526151
O        8.951562466  13.658994165  19.442131491
O        7.746805534   2.534660835   4.235689509
O        8.753846281  12.115305639   0.656253617
O        7.944521719   4.078349361  23.021567383
O        4.741694571  12.465711895   1.557099291
O       11.956673429   3.727944105  22.120721709
O        4.865478763  10.067464222   1.997515334
O       11.832889237   6.126190778  21.680305666
End final coordinates



     Writing output data file HC2pot.save
 
     init_run     :    410.59s CPU    419.54s WALL (       1 calls)
     electrons    :  32508.50s CPU  34114.38s WALL (       3 calls)
     update_pot   :      7.43s CPU      7.53s WALL (       2 calls)
     forces       :    736.75s CPU    801.44s WALL (       3 calls)

     Called by init_run:
     wfcinit      :    371.76s CPU    380.43s WALL (       1 calls)
     potinit      :      8.10s CPU      8.15s WALL (       1 calls)

     Called by electrons:
     c_bands      :  28113.63s CPU  29426.25s WALL (      43 calls)
     sum_band     :   3396.37s CPU   3674.68s WALL (      43 calls)
     v_of_rho     :     23.02s CPU     25.23s WALL (      45 calls)
     newd         :    957.95s CPU    967.21s WALL (      45 calls)
     mix_rho      :      4.21s CPU      4.70s WALL (      43 calls)

     Called by c_bands:
     init_us_2    :    133.53s CPU    135.76s WALL (     360 calls)
     cegterg      :  27565.24s CPU  28131.00s WALL (     172 calls)

     Called by *egterg:
     h_psi        :  13932.18s CPU  14349.11s WALL (     970 calls)
     s_psi        :   4536.65s CPU   4535.40s WALL (     970 calls)
     g_psi        :    101.17s CPU    101.12s WALL (     794 calls)
     cdiaghg      :   1052.61s CPU   1052.31s WALL (     954 calls)

     Called by h_psi:
     add_vuspsi   :   4536.37s CPU   4535.18s WALL (     970 calls)

     General routines
     calbec       :   5971.12s CPU   5967.57s WALL (    1154 calls)
     fft          :      9.52s CPU     11.00s WALL (     589 calls)
     fftw         :   4937.83s CPU   5441.32s WALL (  517776 calls)
     davcio       :      0.93s CPU   1003.38s WALL (     532 calls)
 
     Parallel routines
     fft_scatter  :    819.32s CPU   1030.34s WALL (  518365 calls)
 
     PWSCF        :     9h21m CPU        9h49m WALL

 
   This run was terminated on:  20:11:17  14Dec2016            

=------------------------------------------------------------------------------=
   JOB DONE.
=------------------------------------------------------------------------------=
