 Entering Gaussian System, Link 0=g09
 Input=J1_HP_Mon.com
 Output=J1_HP_Mon.out
 Initial command:
 /share/apps/gaussian/g09_D01/g09/l1.exe "/tmp/135108.1.all.q/Gau-20913.inp" -scrdir="/tmp/135108.1.all.q/"
 Entering Link 1 = /share/apps/gaussian/g09_D01/g09/l1.exe PID=     20914.
  
 Copyright (c) 1988,1990,1992,1993,1995,1998,2003,2009,2013,
            Gaussian, Inc.  All Rights Reserved.
  
 This is part of the Gaussian(R) 09 program.  It is based on
 the Gaussian(R) 03 system (copyright 2003, Gaussian, Inc.),
 the Gaussian(R) 98 system (copyright 1998, Gaussian, Inc.),
 the Gaussian(R) 94 system (copyright 1995, Gaussian, Inc.),
 the Gaussian 92(TM) system (copyright 1992, Gaussian, Inc.),
 the Gaussian 90(TM) system (copyright 1990, Gaussian, Inc.),
 the Gaussian 88(TM) system (copyright 1988, Gaussian, Inc.),
 the Gaussian 86(TM) system (copyright 1986, Carnegie Mellon
 University), and the Gaussian 82(TM) system (copyright 1983,
 Carnegie Mellon University). Gaussian is a federally registered
 trademark of Gaussian, Inc.
  
 This software contains proprietary and confidential information,
 including trade secrets, belonging to Gaussian, Inc.
  
 This software is provided under written license and may be
 used, copied, transmitted, or stored only in accord with that
 written license.
  
 The following legend is applicable only to US Government
 contracts under FAR:
  
                    RESTRICTED RIGHTS LEGEND
  
 Use, reproduction and disclosure by the US Government is
 subject to restrictions as set forth in subparagraphs (a)
 and (c) of the Commercial Computer Software - Restricted
 Rights clause in FAR 52.227-19.
  
 Gaussian, Inc.
 340 Quinnipiac St., Bldg. 40, Wallingford CT 06492
  
  
 ---------------------------------------------------------------
 Warning -- This program may not be used in any manner that
 competes with the business of Gaussian, Inc. or will provide
 assistance to any competitor of Gaussian, Inc.  The licensee
 of this program is prohibited from giving any competitor of
 Gaussian, Inc. access to this program.  By using this program,
 the user acknowledges that Gaussian, Inc. is engaged in the
 business of creating and licensing software in the field of
 computational chemistry and represents and warrants to the
 licensee that it is not a competitor of Gaussian, Inc. and that
 it will not use this program in any manner prohibited above.
 ---------------------------------------------------------------
  

 Cite this work as:
 Gaussian 09, Revision D.01,
 M. J. Frisch, G. W. Trucks, H. B. Schlegel, G. E. Scuseria, 
 M. A. Robb, J. R. Cheeseman, G. Scalmani, V. Barone, B. Mennucci, 
 G. A. Petersson, H. Nakatsuji, M. Caricato, X. Li, H. P. Hratchian, 
 A. F. Izmaylov, J. Bloino, G. Zheng, J. L. Sonnenberg, M. Hada, 
 M. Ehara, K. Toyota, R. Fukuda, J. Hasegawa, M. Ishida, T. Nakajima, 
 Y. Honda, O. Kitao, H. Nakai, T. Vreven, J. A. Montgomery, Jr., 
 J. E. Peralta, F. Ogliaro, M. Bearpark, J. J. Heyd, E. Brothers, 
 K. N. Kudin, V. N. Staroverov, T. Keith, R. Kobayashi, J. Normand, 
 K. Raghavachari, A. Rendell, J. C. Burant, S. S. Iyengar, J. Tomasi, 
 M. Cossi, N. Rega, J. M. Millam, M. Klene, J. E. Knox, J. B. Cross, 
 V. Bakken, C. Adamo, J. Jaramillo, R. Gomperts, R. E. Stratmann, 
 O. Yazyev, A. J. Austin, R. Cammi, C. Pomelli, J. W. Ochterski, 
 R. L. Martin, K. Morokuma, V. G. Zakrzewski, G. A. Voth, 
 P. Salvador, J. J. Dannenberg, S. Dapprich, A. D. Daniels, 
 O. Farkas, J. B. Foresman, J. V. Ortiz, J. Cioslowski, 
 and D. J. Fox, Gaussian, Inc., Wallingford CT, 2013.
 
 ******************************************
 Gaussian 09:  ES64L-G09RevD.01 24-Apr-2013
                18-Sep-2017 
 ******************************************
 %chk=HP_Mon_J_1.chk
 %mem=2GB
 %nproc=4
 Will use up to    4 processors via shared memory.
 --------------------------------------------------
 # wb97xd 6-311++g** td=(singlets,nstates=1) nosymm
 --------------------------------------------------
 1/38=1/1;
 2/12=2,15=1,17=6,18=5,40=1/2;
 3/5=4,6=6,7=1111,11=9,16=1,25=1,30=1,74=-58/1,2,8,3;
 4//1;
 5/5=2,38=5/2;
 8/6=1,10=2,108=1/1;
 9/41=1,42=1,48=1,70=2/14;
 6/7=2,8=2,9=2,10=2/1;
 99/5=1,9=1/99;
 ---------------------
 Monomer Exictation J1
 ---------------------
 Symbolic Z-matrix:
 Charge =  0 Multiplicity = 1
 H                     0.80828   1.71351   1.79943 
 C                     0.58142   1.29356   2.76758 
 C                     1.55604   0.45896   3.44204 
 C                    -0.60163   1.5457    3.38914 
 C                     2.84511   0.14651   2.76938 
 O                     1.34896   0.01963   4.58849 
 H                    -0.7797    1.06313   4.3464 
 N                    -1.58757   2.35643   2.96243 
 C                     3.89026  -0.44447   3.51612 
 C                     3.07114   0.4197    1.41277 
 H                     2.81613  -0.58939   5.03817 
 C                    -1.48449   3.04606   1.69254 
 C                    -2.88605   2.35303   3.60558 
 C                     5.12691  -0.69021   2.90878 
 O                     3.75497  -0.77987   4.80204 
 C                     4.28565   0.1487    0.81184 
 H                     2.27159   0.83156   0.8111 
 H                    -1.6622    2.36989   0.84792 
 H                    -2.2244    3.848     1.66164 
 H                    -0.49317   3.48949   1.58269 
 H                    -2.81883   1.85371   4.57231 
 H                    -3.2313    3.3793    3.76832 
 H                    -3.63201   1.82971   2.99336 
 C                     5.31983  -0.39662   1.57403 
 H                     5.9126   -1.12402   3.51493 
 H                     4.42697   0.35186  -0.24245 
 H                     6.28188  -0.60106   1.11651 
 
                          Input orientation:                          
 ---------------------------------------------------------------------
 Center     Atomic      Atomic             Coordinates (Angstroms)
 Number     Number       Type             X           Y           Z
 ---------------------------------------------------------------------
      1          1           0        0.808278    1.713509    1.799433
      2          6           0        0.581420    1.293560    2.767584
      3          6           0        1.556037    0.458959    3.442038
      4          6           0       -0.601627    1.545703    3.389144
      5          6           0        2.845109    0.146510    2.769383
      6          8           0        1.348961    0.019626    4.588492
      7          1           0       -0.779696    1.063129    4.346396
      8          7           0       -1.587574    2.356426    2.962433
      9          6           0        3.890255   -0.444474    3.516121
     10          6           0        3.071142    0.419696    1.412774
     11          1           0        2.816130   -0.589386    5.038175
     12          6           0       -1.484488    3.046062    1.692542
     13          6           0       -2.886045    2.353027    3.605579
     14          6           0        5.126913   -0.690212    2.908777
     15          8           0        3.754973   -0.779870    4.802038
     16          6           0        4.285648    0.148700    0.811836
     17          1           0        2.271593    0.831557    0.811104
     18          1           0       -1.662197    2.369891    0.847920
     19          1           0       -2.224397    3.847997    1.661639
     20          1           0       -0.493171    3.489494    1.582694
     21          1           0       -2.818827    1.853707    4.572311
     22          1           0       -3.231297    3.379298    3.768317
     23          1           0       -3.632013    1.829713    2.993364
     24          6           0        5.319830   -0.396616    1.574026
     25          1           0        5.912601   -1.124016    3.514929
     26          1           0        4.426974    0.351858   -0.242450
     27          1           0        6.281884   -0.601060    1.116508
 ---------------------------------------------------------------------
                    Distance matrix (angstroms):
                    1          2          3          4          5
     1  H    0.000000
     2  C    1.079416   0.000000
     3  C    2.197997   1.449595   0.000000
     4  C    2.131472   1.359968   2.416469   0.000000
     5  C    2.746811   2.537718   1.487211   3.771185   0.000000
     6  O    3.307632   2.351113   1.245091   2.751752   2.358753
     7  H    3.071103   2.097232   2.576535   1.086700   4.057878
     8  N    2.739711   2.423259   3.703065   1.345900   4.956781
     9  C    4.135516   3.811753   2.504047   4.914665   1.413934
    10  C    2.635149   2.966119   2.532784   4.320088   1.402180
    11  H    4.452443   3.700675   2.287906   4.354190   2.385330
    12  C    2.654034   2.914611   4.358742   2.430839   5.320940
    13  C    4.161631   3.721293   4.831804   2.432526   6.197908
    14  C    5.065484   4.961531   3.788947   6.168163   2.434371
    15  O    4.890357   4.302273   2.866987   5.136587   2.411995
    16  C    3.939045   4.342460   3.803288   5.699087   2.430462
    17  H    1.973810   2.626394   2.751847   3.925772   2.152456
    18  H    2.727538   3.142836   4.553915   2.874355   5.380637
    19  H    3.711084   3.952325   5.380249   3.304272   6.374009
    20  H    2.212435   2.716769   4.103725   2.655814   4.871128
    21  H    4.567756   3.890049   4.728877   2.531941   6.184274
    22  H    4.792653   4.459661   5.617242   3.228158   6.954962
    23  H    4.599474   4.253405   5.384806   3.069290   6.696002
    24  C    4.985733   5.170474   4.288078   6.490833   2.801448
    25  H    6.086755   5.901245   4.635814   7.041192   3.402879
    26  H    4.372452   4.973469   4.672173   6.316690   3.408167
    27  H    5.981971   6.229842   5.372649   7.560171   3.886165
                    6          7          8          9         10
     6  O    0.000000
     7  H    2.383000   0.000000
     8  N    4.089980   2.059281   0.000000
     9  C    2.797060   4.977014   6.177234   0.000000
    10  C    3.634714   4.883554   5.277878   2.416983   0.000000
    11  H    1.650968   4.017378   5.690266   1.868527   3.771844
    12  C    5.057101   3.386989   1.448740   6.663118   5.265912
    13  C    4.934182   2.578634   1.449026   7.331593   6.635830
    14  C    4.195025   6.326846   7.373549   1.399492   2.774187
    15  O    2.544345   4.916043   6.462454   1.335805   3.659740
    16  C    4.785804   6.243957   6.632787   2.796667   1.381879
    17  H    3.972297   4.675712   4.674036   3.400800   1.082088
    18  H    5.346279   3.837417   2.115872   6.772715   5.150419
    19  H    5.999315   4.129234   2.079036   7.697622   6.313313
    20  H    4.946540   3.688820   2.094097   6.199086   4.707107
    21  H    4.553523   2.198660   2.088161   7.170004   6.835993
    22  H    5.739237   3.421865   2.097032   8.087109   7.350413
    23  H    5.534523   3.248701   2.111425   7.875895   7.029844
    24  C    5.002806   6.857194   7.564334   2.411993   2.397700
    25  H    4.825688   7.089554   8.286818   2.133462   3.856941
    26  H    5.737817   6.976591   7.103827   3.879313   2.140712
    27  H    6.064128   7.941512   8.607121   3.391541   3.382097
                   11         12         13         14         15
    11  H    0.000000
    12  C    6.550195   0.000000
    13  C    6.574567   2.470702   0.000000
    14  C    3.143918   7.690877   8.599670   0.000000
    15  O    0.986646   7.194350   7.439736   2.339807   0.000000
    16  C    4.534997   6.516504   8.006075   2.410117   4.131050
    17  H    4.492630   4.448495   6.060131   3.856017   4.552435
    18  H    6.809623   1.096437   3.017080   7.726796   7.409573
    19  H    7.516533   1.091568   2.540003   8.728829   8.187315
    20  H    6.287216   1.091516   3.333087   7.128379   6.829229
    21  H    6.159421   3.390463   1.090142   8.507271   7.085432
    22  H    7.344002   2.733355   1.094950   9.335920   8.196049
    23  H    7.184138   2.789894   1.097786   9.114602   8.040447
    24  C    4.278551   7.626586   8.889552   1.380209   3.607731
    25  H    3.492025   8.684905   9.461195   1.083011   2.535832
    26  H    5.600514   6.778518   8.502485   3.392058   5.213372
    27  H    5.233647   8.599410   9.948519   2.134042   4.472179
                   16         17         18         19         20
    16  C    0.000000
    17  H    2.126667   0.000000
    18  H    6.349161   4.224042   0.000000
    19  H    7.535758   5.480533   1.778484   0.000000
    20  H    5.881517   3.912020   1.777646   1.769718   0.000000
    21  H    8.217164   6.411228   3.933869   3.578065   4.125807
    22  H    8.699541   6.746695   3.465501   2.381516   3.505200
    23  H    8.382972   6.372687   2.962245   2.797918   3.820627
    24  C    1.395649   3.373753   7.545163   8.656776   6.992346
    25  H    3.401984   4.938813   8.757733   9.714234   8.127233
    26  H    1.082943   2.446580   6.506871   7.751727   6.114224
    27  H    2.154048   4.269438   8.485700   9.614993   7.927883
                   21         22         23         24         25
    21  H    0.000000
    22  H    1.773123   0.000000
    23  H    1.776210   1.778297   0.000000
    24  C    8.960547   9.601782   9.333089   0.000000
    25  H    9.285619  10.195828  10.004809   2.155828   0.000000
    26  H    8.828313   9.159736   8.809189   2.158006   4.301533
    27  H   10.039492  10.647814  10.378661   1.084743   2.482393
                   26         27
    26  H    0.000000
    27  H    2.489078   0.000000
 Symmetry turned off by external request.
 Stoichiometry    C11H13NO2
 Framework group  C1[X(C11H13NO2)]
 Deg. of freedom    75
 Full point group                 C1      NOp   1
 Rotational constants (GHZ):      1.6091391      0.3215967      0.2704242
 Standard basis: 6-311++G(d,p) (5D, 7F)
   399 basis functions,   621 primitive gaussians,   413 cartesian basis functions
    51 alpha electrons       51 beta electrons
       nuclear repulsion energy       837.9407351766 Hartrees.
 NAtoms=   27 NActive=   27 NUniq=   27 SFac= 1.00D+00 NAtFMM=   60 NAOKFM=F Big=F
 Integral buffers will be    131072 words long.
 Raffenetti 1 integral format.
 Two-electron integral symmetry is turned off.
 Nuclear repulsion after empirical dispersion term =      837.9258456697 Hartrees.
 One-electron integrals computed using PRISM.
 NBasis=   399 RedAO= T EigKep=  1.55D-06  NBF=   399
 NBsUse=   397 1.00D-06 EigRej=  7.03D-07 NBFU=   397
 ExpMin= 3.60D-02 ExpMax= 8.59D+03 ExpMxC= 1.30D+03 IAcc=3 IRadAn=         5 AccDes= 0.00D+00
 Harris functional with IExCor= 4639 and IRadAn=       5 diagonalized for initial guess.
 HarFok:  IExCor= 4639 AccDes= 0.00D+00 IRadAn=         5 IDoV= 1 UseB2=F ITyADJ=14
 ICtDFT=  3500011 ScaDFX=  1.000000  1.000000  1.000000  1.000000
 FoFCou: FMM=F IPFlag=           0 FMFlag=      100000 FMFlg1=           0
         NFxFlg=           0 DoJE=T BraDBF=F KetDBF=T FulRan=T
         wScrn=  0.000000 ICntrl=     500 IOpCl=  0 I1Cent=   200000004 NGrid=           0
         NMat0=    1 NMatS0=      1 NMatT0=    0 NMatD0=    1 NMtDS0=    0 NMtDT0=    0
 Symmetry not used in FoFCou.
 Requested convergence on RMS density matrix=1.00D-08 within 128 cycles.
 Requested convergence on MAX density matrix=1.00D-06.
 Requested convergence on             energy=1.00D-06.
 No special actions if energy rises.
 SCF Done:  E(RwB97XD) =  -632.152396753     A.U. after   17 cycles
            NFock= 17  Conv=0.81D-08     -V/T= 2.0040
 DoSCS=F DFT=T ScalE2(SS,OS)=  1.000000  1.000000
 ExpMin= 3.60D-02 ExpMax= 8.59D+03 ExpMxC= 1.30D+03 IAcc=3 IRadAn=         5 AccDes= 0.00D+00
 HarFok:  IExCor=  205 AccDes= 0.00D+00 IRadAn=         5 IDoV=-2 UseB2=F ITyADJ=14
 ICtDFT= 12500011 ScaDFX=  1.000000  1.000000  1.000000  1.000000
 Range of M.O.s used for correlation:    15   397
 NBasis=   399 NAE=    51 NBE=    51 NFC=    14 NFV=     0
 NROrb=    383 NOA=    37 NOB=    37 NVA=   346 NVB=   346

 **** Warning!!: The largest alpha MO coefficient is  0.14961052D+03

 Would need an additional         18871500000 words for in-memory AO integral storage.
     8 initial guesses have been made.
 Convergence on wavefunction:    0.001000000000000
 Iteration     1 Dimension     8 NMult     0 NNew      8
 CISAX will form     8 AO SS matrices at one time.
 New state      1 was old state      8
 Iteration     2 Dimension    12 NMult     8 NNew      4
 Iteration     3 Dimension    16 NMult    12 NNew      4
 Iteration     4 Dimension    20 NMult    16 NNew      4
 Iteration     5 Dimension    24 NMult    20 NNew      4
 Iteration     6 Dimension    28 NMult    24 NNew      4
 Iteration     7 Dimension    32 NMult    28 NNew      4
 Iteration     8 Dimension    36 NMult    32 NNew      4
 ***********************************************************************
 Excited states from <AA,BB:AA,BB> singles matrix:
 ***********************************************************************
 
 Ground to excited state transition densities written to RWF  633
 Ground to excited state transition electric dipole moments (Au):
       state          X           Y           Z        Dip. S.      Osc.
         1        -1.9255      0.8777     -0.1356      4.4961      0.4575
 Ground to excited state transition velocity dipole moments (Au):
       state          X           Y           Z        Dip. S.      Osc.
         1         0.2929     -0.1341      0.0243      0.1044      0.4560
 Ground to excited state transition magnetic dipole moments (Au):
       state          X           Y           Z
         1         0.7192      1.2026     -1.0914
 Ground to excited state transition velocity quadrupole moments (Au):
       state          XX          YY          ZZ          XY          XZ          YZ
         1         1.6589     -0.4490      0.4041      0.0617      1.6560     -0.7356
 <0|del|b> * <b|rxdel|0> + <0|del|b> * <b|delr+rdel|0>
 Rotatory Strengths (R) in cgs (10**-40 erg-esu-cm/Gauss)
       state          XX          YY          ZZ    R(velocity)    E-M Angle
         1        82.9070    -76.0677     99.0129     35.2841       87.72
 1/2[<0|r|b>*<b|rxdel|0> + (<0|rxdel|b>*<b|r|0>)*]
 Rotatory Strengths (R) in cgs (10**-40 erg-esu-cm/Gauss)
       state          XX          YY          ZZ     R(length)
         1       979.3448   -746.4044   -104.6459     42.7648
  1/2[<0|del|b>*<b|r|0> + (<0|r|b>*<b|del|0>)*] (Au)
       state          X           Y           Z        Dip. S.   Osc.(frdel)
         1        -0.5641     -0.1177     -0.0033      0.6851      0.4567

 Excitation energies and oscillator strengths:
 
 Excited state symmetry could not be determined.
 Excited State   1:      Singlet-?Sym    4.1532 eV  298.53 nm  f=0.4575  <S**2>=0.000
      48 -> 52         0.22002
      49 -> 52         0.10164
      51 -> 52         0.63347
 This state for optimization and/or second-order correction.
 Total Energy, E(TD-HF/TD-KS) =  -631.999771082    
 Copying the excited state density for this state as the 1-particle RhoCI density.
 SavETr:  write IOETrn=   770 NScale= 10 NData=  16 NLR=1 NState=    1 LETran=      28.

 **********************************************************************

            Population analysis using the SCF density.

 **********************************************************************

 Alpha  occ. eigenvalues --  -19.25164 -19.22213 -14.49031 -10.37263 -10.35049
 Alpha  occ. eigenvalues --  -10.34674 -10.33914 -10.33646 -10.29450 -10.29220
 Alpha  occ. eigenvalues --  -10.29072 -10.27980 -10.27772 -10.27372  -1.16096
 Alpha  occ. eigenvalues --   -1.12566  -1.08739  -0.95722  -0.89469  -0.86275
 Alpha  occ. eigenvalues --   -0.85196  -0.83785  -0.80069  -0.73711  -0.70163
 Alpha  occ. eigenvalues --   -0.68811  -0.65168  -0.63087  -0.60416  -0.59128
 Alpha  occ. eigenvalues --   -0.58538  -0.58052  -0.55349  -0.53273  -0.51958
 Alpha  occ. eigenvalues --   -0.51710  -0.51455  -0.51240  -0.50334  -0.49500
 Alpha  occ. eigenvalues --   -0.47226  -0.46771  -0.46499  -0.45381  -0.42421
 Alpha  occ. eigenvalues --   -0.42131  -0.41702  -0.33840  -0.33400  -0.30110
 Alpha  occ. eigenvalues --   -0.28856
 Alpha virt. eigenvalues --    0.00288   0.02750   0.04179   0.04980   0.05598
 Alpha virt. eigenvalues --    0.05918   0.06184   0.06499   0.07652   0.07903
 Alpha virt. eigenvalues --    0.08108   0.08381   0.08527   0.10020   0.10126
 Alpha virt. eigenvalues --    0.11490   0.12043   0.12823   0.13130   0.13358
 Alpha virt. eigenvalues --    0.13998   0.14624   0.15081   0.15220   0.15769
 Alpha virt. eigenvalues --    0.16334   0.16435   0.16889   0.16937   0.17567
 Alpha virt. eigenvalues --    0.17798   0.17990   0.18311   0.18649   0.19178
 Alpha virt. eigenvalues --    0.19766   0.19965   0.20774   0.21010   0.21124
 Alpha virt. eigenvalues --    0.21620   0.22204   0.22408   0.22834   0.23397
 Alpha virt. eigenvalues --    0.23870   0.24207   0.24765   0.25155   0.25473
 Alpha virt. eigenvalues --    0.26183   0.26664   0.27022   0.27495   0.27927
 Alpha virt. eigenvalues --    0.28213   0.28442   0.29373   0.29939   0.30095
 Alpha virt. eigenvalues --    0.30392   0.31024   0.31588   0.31884   0.32893
 Alpha virt. eigenvalues --    0.33403   0.33765   0.34437   0.35031   0.35534
 Alpha virt. eigenvalues --    0.35732   0.35967   0.36637   0.37388   0.37642
 Alpha virt. eigenvalues --    0.37799   0.38162   0.38907   0.39515   0.39932
 Alpha virt. eigenvalues --    0.40327   0.40818   0.41233   0.42287   0.42873
 Alpha virt. eigenvalues --    0.43676   0.44115   0.45268   0.45734   0.46833
 Alpha virt. eigenvalues --    0.47731   0.49563   0.50680   0.50978   0.52515
 Alpha virt. eigenvalues --    0.53058   0.55304   0.56919   0.58017   0.59303
 Alpha virt. eigenvalues --    0.60501   0.62327   0.62926   0.63184   0.64168
 Alpha virt. eigenvalues --    0.64632   0.65191   0.65705   0.66932   0.67542
 Alpha virt. eigenvalues --    0.67775   0.68875   0.69467   0.70288   0.70654
 Alpha virt. eigenvalues --    0.71423   0.71672   0.71967   0.72434   0.74267
 Alpha virt. eigenvalues --    0.75282   0.75602   0.75802   0.77437   0.78090
 Alpha virt. eigenvalues --    0.79151   0.79918   0.80439   0.80763   0.82286
 Alpha virt. eigenvalues --    0.83061   0.84233   0.85900   0.86469   0.86777
 Alpha virt. eigenvalues --    0.89028   0.90691   0.93223   0.94099   0.94452
 Alpha virt. eigenvalues --    0.95625   0.95787   0.96945   0.97911   0.98393
 Alpha virt. eigenvalues --    0.99104   1.00199   1.01814   1.02906   1.03371
 Alpha virt. eigenvalues --    1.05398   1.06910   1.07478   1.09819   1.10636
 Alpha virt. eigenvalues --    1.12007   1.13449   1.13927   1.15043   1.16137
 Alpha virt. eigenvalues --    1.17558   1.19244   1.19690   1.21139   1.21613
 Alpha virt. eigenvalues --    1.23002   1.24754   1.28069   1.31762   1.32660
 Alpha virt. eigenvalues --    1.33790   1.34328   1.36448   1.38469   1.40167
 Alpha virt. eigenvalues --    1.41289   1.45866   1.47052   1.50686   1.51720
 Alpha virt. eigenvalues --    1.52427   1.54454   1.57198   1.58429   1.59550
 Alpha virt. eigenvalues --    1.60368   1.60656   1.62491   1.63077   1.63629
 Alpha virt. eigenvalues --    1.64373   1.65965   1.66224   1.67189   1.68027
 Alpha virt. eigenvalues --    1.70214   1.71542   1.72854   1.73241   1.74917
 Alpha virt. eigenvalues --    1.75304   1.76939   1.77534   1.80347   1.80569
 Alpha virt. eigenvalues --    1.82450   1.82860   1.83445   1.83864   1.85617
 Alpha virt. eigenvalues --    1.88010   1.88825   1.90813   1.91144   1.94159
 Alpha virt. eigenvalues --    1.97913   2.00248   2.01385   2.01822   2.02643
 Alpha virt. eigenvalues --    2.03094   2.04721   2.04943   2.05920   2.07924
 Alpha virt. eigenvalues --    2.08850   2.10474   2.11612   2.12026   2.14775
 Alpha virt. eigenvalues --    2.15650   2.17770   2.20000   2.21346   2.23849
 Alpha virt. eigenvalues --    2.24722   2.26303   2.30451   2.31408   2.35844
 Alpha virt. eigenvalues --    2.37949   2.39769   2.43004   2.46132   2.47188
 Alpha virt. eigenvalues --    2.48803   2.51759   2.52081   2.54208   2.55686
 Alpha virt. eigenvalues --    2.57264   2.58088   2.59841   2.61926   2.62704
 Alpha virt. eigenvalues --    2.66159   2.66863   2.70126   2.70907   2.72210
 Alpha virt. eigenvalues --    2.74398   2.75734   2.77656   2.79948   2.80798
 Alpha virt. eigenvalues --    2.82372   2.83393   2.83812   2.84402   2.86044
 Alpha virt. eigenvalues --    2.87469   2.88485   2.89389   2.90270   2.91504
 Alpha virt. eigenvalues --    2.92065   2.94876   2.96130   2.96824   2.98357
 Alpha virt. eigenvalues --    2.99999   3.02666   3.05776   3.06846   3.08231
 Alpha virt. eigenvalues --    3.11792   3.16714   3.20048   3.22469   3.23569
 Alpha virt. eigenvalues --    3.24396   3.24738   3.30075   3.31784   3.31927
 Alpha virt. eigenvalues --    3.37724   3.43640   3.47156   3.51199   3.56501
 Alpha virt. eigenvalues --    3.61088   3.63478   3.64968   3.67665   3.69946
 Alpha virt. eigenvalues --    3.72102   3.74967   3.80202   3.81649   3.83439
 Alpha virt. eigenvalues --    3.85974   3.89698   3.92322   3.93878   4.03907
 Alpha virt. eigenvalues --    4.09555   4.12999   4.15056   4.17870   4.29233
 Alpha virt. eigenvalues --    4.30548   4.39578   4.62674   4.95208   4.97836
 Alpha virt. eigenvalues --    5.14839   5.17684   5.19585   5.42685   5.62706
 Alpha virt. eigenvalues --    5.90533   5.93809  23.73480  23.94235  24.03165
 Alpha virt. eigenvalues --   24.04433  24.06690  24.07452  24.09634  24.17860
 Alpha virt. eigenvalues --   24.25313  24.30362  24.34171  35.69518  50.13936
 Alpha virt. eigenvalues --   50.19490
          Condensed to atoms (all electrons):
               1          2          3          4          5          6
     1  H    0.803232   0.954735  -0.100949  -0.195966  -0.144743  -0.001003
     2  C    0.954735  24.234396   0.851290  -5.585996  -8.924586  -0.343776
     3  C   -0.100949   0.851290  20.550515  -5.857309  -4.481880   0.701023
     4  C   -0.195966  -5.585996  -5.857309  16.673796   1.945587   0.263366
     5  C   -0.144743  -8.924586  -4.481880   1.945587  22.313098  -0.070481
     6  O   -0.001003  -0.343776   0.701023   0.263366  -0.070481   8.134638
     7  H    0.002717  -0.031927   0.023434   0.442889  -0.037689   0.012756
     8  N   -0.029757  -0.227902  -0.024210   0.202082   0.005662   0.004351
     9  C    0.149563  -2.557498  -0.183222  -1.450412  -1.055233  -0.094793
    10  C   -0.388676  -1.200557  -2.342670  -0.169001  -1.063240  -0.230681
    11  H   -0.001424  -0.004808   0.014828  -0.011302  -0.153357   0.069698
    12  C    0.015058   0.398279  -0.413622   0.012861  -0.238754  -0.002469
    13  C   -0.006157  -0.268577  -0.143829   0.074182   0.048141   0.003397
    14  C   -0.031579  -1.056600  -3.149104  -0.050209  -1.301711  -0.086199
    15  O   -0.002726  -0.070599  -0.110634   0.010305   0.180654   0.000580
    16  C   -0.001991   0.598177   1.863337  -0.479571  -2.787380  -0.007717
    17  H   -0.081749  -0.235497   0.034007  -0.071117  -0.136687  -0.005745
    18  H    0.003623   0.038131   0.026596  -0.078334   0.007238  -0.000016
    19  H   -0.005163  -0.002472  -0.027911   0.055533  -0.007036  -0.000043
    20  H   -0.010813  -0.078967  -0.010571   0.071353  -0.007208   0.000859
    21  H   -0.001374  -0.053134   0.012867   0.094255   0.014532   0.001122
    22  H    0.001828   0.020546   0.003308  -0.015816  -0.000053   0.000153
    23  H   -0.001461   0.055586  -0.003427  -0.073637  -0.004189  -0.000261
    24  C   -0.013392  -0.363950  -0.467626  -0.093083   0.093733  -0.020768
    25  H    0.000432  -0.005748  -0.028952   0.000383  -0.084513   0.000697
    26  H    0.006123   0.007093   0.010110   0.002140   0.022665   0.000722
    27  H   -0.001032  -0.003995   0.003302   0.000180   0.091398  -0.000279
               7          8          9         10         11         12
     1  H    0.002717  -0.029757   0.149563  -0.388676  -0.001424   0.015058
     2  C   -0.031927  -0.227902  -2.557498  -1.200557  -0.004808   0.398279
     3  C    0.023434  -0.024210  -0.183222  -2.342670   0.014828  -0.413622
     4  C    0.442889   0.202082  -1.450412  -0.169001  -0.011302   0.012861
     5  C   -0.037689   0.005662  -1.055233  -1.063240  -0.153357  -0.238754
     6  O    0.012756   0.004351  -0.094793  -0.230681   0.069698  -0.002469
     7  H    0.478381  -0.069651  -0.054811   0.030225  -0.000301   0.011252
     8  N   -0.069651   6.830209  -0.001258  -0.004283   0.000023   0.246249
     9  C   -0.054811  -0.001258  18.694161  -7.304756   0.029274  -0.038466
    10  C    0.030225  -0.004283  -7.304756  18.874080   0.031555  -0.001146
    11  H   -0.000301   0.000023   0.029274   0.031555   0.316402  -0.000919
    12  C    0.011252   0.246249  -0.038466  -0.001146  -0.000919   5.309893
    13  C   -0.024569   0.275674   0.000705  -0.012994   0.000127  -0.087144
    14  C   -0.002050   0.000332  -1.496487   3.358880   0.083022  -0.003849
    15  O   -0.000289  -0.000046   0.414009  -0.019569   0.263676  -0.000279
    16  C   -0.003148  -0.001918   1.598167  -2.947998   0.006694   0.017504
    17  H    0.001244  -0.005330  -0.116849   0.918234   0.001781  -0.000438
    18  H   -0.003738  -0.051861   0.001333   0.003298   0.000070   0.416174
    19  H   -0.000410  -0.053903  -0.001614  -0.001263  -0.000066   0.389065
    20  H    0.004614  -0.036431  -0.005625   0.006479   0.000021   0.409825
    21  H   -0.008057  -0.088919   0.002646  -0.002460   0.000095  -0.003162
    22  H   -0.000504  -0.051574   0.000098   0.000614   0.000041  -0.022509
    23  H    0.005684  -0.045054  -0.000481   0.000590  -0.000011   0.028134
    24  C   -0.000090  -0.000007  -0.727706  -0.078329  -0.006340  -0.003853
    25  H   -0.000207   0.000003  -0.099096   0.032377   0.001991   0.000016
    26  H   -0.000155   0.000090   0.057293  -0.148327   0.000304  -0.000099
    27  H    0.000033  -0.000008   0.023651  -0.055827  -0.000542  -0.000066
              13         14         15         16         17         18
     1  H   -0.006157  -0.031579  -0.002726  -0.001991  -0.081749   0.003623
     2  C   -0.268577  -1.056600  -0.070599   0.598177  -0.235497   0.038131
     3  C   -0.143829  -3.149104  -0.110634   1.863337   0.034007   0.026596
     4  C    0.074182  -0.050209   0.010305  -0.479571  -0.071117  -0.078334
     5  C    0.048141  -1.301711   0.180654  -2.787380  -0.136687   0.007238
     6  O    0.003397  -0.086199   0.000580  -0.007717  -0.005745  -0.000016
     7  H   -0.024569  -0.002050  -0.000289  -0.003148   0.001244  -0.003738
     8  N    0.275674   0.000332  -0.000046  -0.001918  -0.005330  -0.051861
     9  C    0.000705  -1.496487   0.414009   1.598167  -0.116849   0.001333
    10  C   -0.012994   3.358880  -0.019569  -2.947998   0.918234   0.003298
    11  H    0.000127   0.083022   0.263676   0.006694   0.001781   0.000070
    12  C   -0.087144  -0.003849  -0.000279   0.017504  -0.000438   0.416174
    13  C    5.234740  -0.000183   0.000078  -0.000301  -0.001779  -0.010415
    14  C   -0.000183  10.486542  -0.419703  -1.197419   0.114639  -0.000125
    15  O    0.000078  -0.419703   8.065490  -0.003416  -0.001461   0.000031
    16  C   -0.000301  -1.197419  -0.003416   9.369637  -0.139300   0.000490
    17  H   -0.001779   0.114639  -0.001461  -0.139300   0.625569  -0.002572
    18  H   -0.010415  -0.000125   0.000031   0.000490  -0.002572   0.515069
    19  H    0.012361   0.000008  -0.000013   0.000127   0.000864  -0.028991
    20  H    0.008451  -0.000969   0.000120   0.000469   0.001578  -0.045251
    21  H    0.406287   0.000399   0.000007  -0.000744   0.000332  -0.001733
    22  H    0.415531  -0.000078   0.000005   0.000347  -0.000284   0.003423
    23  H    0.390432  -0.000025  -0.000005   0.000157   0.000340   0.003024
    24  C   -0.000324   0.806467   0.011290   0.337272   0.022013   0.000539
    25  H    0.000014   0.560488  -0.025560  -0.002243   0.000511  -0.000007
    26  H    0.000097  -0.002370   0.000132   0.434717  -0.023239   0.000106
    27  H    0.000002  -0.123057   0.000696  -0.063852   0.000710   0.000006
              19         20         21         22         23         24
     1  H   -0.005163  -0.010813  -0.001374   0.001828  -0.001461  -0.013392
     2  C   -0.002472  -0.078967  -0.053134   0.020546   0.055586  -0.363950
     3  C   -0.027911  -0.010571   0.012867   0.003308  -0.003427  -0.467626
     4  C    0.055533   0.071353   0.094255  -0.015816  -0.073637  -0.093083
     5  C   -0.007036  -0.007208   0.014532  -0.000053  -0.004189   0.093733
     6  O   -0.000043   0.000859   0.001122   0.000153  -0.000261  -0.020768
     7  H   -0.000410   0.004614  -0.008057  -0.000504   0.005684  -0.000090
     8  N   -0.053903  -0.036431  -0.088919  -0.051574  -0.045054  -0.000007
     9  C   -0.001614  -0.005625   0.002646   0.000098  -0.000481  -0.727706
    10  C   -0.001263   0.006479  -0.002460   0.000614   0.000590  -0.078329
    11  H   -0.000066   0.000021   0.000095   0.000041  -0.000011  -0.006340
    12  C    0.389065   0.409825  -0.003162  -0.022509   0.028134  -0.003853
    13  C    0.012361   0.008451   0.406287   0.415531   0.390432  -0.000324
    14  C    0.000008  -0.000969   0.000399  -0.000078  -0.000025   0.806467
    15  O   -0.000013   0.000120   0.000007   0.000005  -0.000005   0.011290
    16  C    0.000127   0.000469  -0.000744   0.000347   0.000157   0.337272
    17  H    0.000864   0.001578   0.000332  -0.000284   0.000340   0.022013
    18  H   -0.028991  -0.045251  -0.001733   0.003423   0.003024   0.000539
    19  H    0.517055  -0.021328   0.003945   0.000633  -0.006837  -0.000169
    20  H   -0.021328   0.536866  -0.002637  -0.002563   0.001393   0.000547
    21  H    0.003945  -0.002637   0.533106  -0.018254  -0.034916   0.000007
    22  H    0.000633  -0.002563  -0.018254   0.562926  -0.066632   0.000010
    23  H   -0.006837   0.001393  -0.034916  -0.066632   0.572246  -0.000025
    24  C   -0.000169   0.000547   0.000007   0.000010  -0.000025   6.377879
    25  H    0.000002  -0.000032   0.000005   0.000000   0.000000  -0.032969
    26  H   -0.000034  -0.000253  -0.000003   0.000007  -0.000002  -0.057489
    27  H   -0.000003   0.000043   0.000000   0.000000   0.000000   0.457950
              25         26         27
     1  H    0.000432   0.006123  -0.001032
     2  C   -0.005748   0.007093  -0.003995
     3  C   -0.028952   0.010110   0.003302
     4  C    0.000383   0.002140   0.000180
     5  C   -0.084513   0.022665   0.091398
     6  O    0.000697   0.000722  -0.000279
     7  H   -0.000207  -0.000155   0.000033
     8  N    0.000003   0.000090  -0.000008
     9  C   -0.099096   0.057293   0.023651
    10  C    0.032377  -0.148327  -0.055827
    11  H    0.001991   0.000304  -0.000542
    12  C    0.000016  -0.000099  -0.000066
    13  C    0.000014   0.000097   0.000002
    14  C    0.560488  -0.002370  -0.123057
    15  O   -0.025560   0.000132   0.000696
    16  C   -0.002243   0.434717  -0.063852
    17  H    0.000511  -0.023239   0.000710
    18  H   -0.000007   0.000106   0.000006
    19  H    0.000002  -0.000034  -0.000003
    20  H   -0.000032  -0.000253   0.000043
    21  H    0.000005  -0.000003   0.000000
    22  H    0.000000   0.000007   0.000000
    23  H    0.000000  -0.000002   0.000000
    24  C   -0.032969  -0.057489   0.457950
    25  H    0.465471   0.001106  -0.012195
    26  H    0.001106   0.485816  -0.010360
    27  H   -0.012195  -0.010360   0.492033
 Mulliken charges:
               1
     1  H    0.082645
     2  C   -0.141644
     3  C   -0.748702
     4  C    0.282844
     5  C    1.776036
     6  O   -0.329128
     7  H    0.224367
     8  N    0.127437
     9  C    0.217406
    10  C   -1.284554
    11  H    0.359471
    12  C   -0.437533
    13  C   -0.313948
    14  C   -0.489061
    15  O   -0.292774
    16  C   -0.590095
    17  H    0.100224
    18  H    0.203893
    19  H    0.177663
    20  H    0.180030
    21  H    0.145789
    22  H    0.168798
    23  H    0.179376
    24  C   -0.241587
    25  H    0.228027
    26  H    0.213809
    27  H    0.201212
 Sum of Mulliken charges =   0.00000
 Mulliken charges with hydrogens summed into heavy atoms:
               1
     2  C   -0.058999
     3  C   -0.748702
     4  C    0.507211
     5  C    1.776036
     6  O   -0.329128
     8  N    0.127437
     9  C    0.217406
    10  C   -1.184330
    12  C    0.124054
    13  C    0.180015
    14  C   -0.261034
    15  O    0.066697
    16  C   -0.376287
    24  C   -0.040375
 Electronic spatial extent (au):  <R**2>=           8191.6037
 Charge=              0.0000 electrons
 Dipole moment (field-independent basis, Debye):
    X=             -4.9191    Y=              3.4818    Z=             -3.1500  Tot=              6.8002
 Quadrupole moment (field-independent basis, Debye-Ang):
   XX=            -78.9121   YY=            -78.1606   ZZ=           -102.3611
   XY=             -7.2253   XZ=            -24.2939   YZ=              8.3148
 Traceless Quadrupole moment (field-independent basis, Debye-Ang):
   XX=              7.5658   YY=              8.3173   ZZ=            -15.8831
   XY=             -7.2253   XZ=            -24.2939   YZ=              8.3148
 Octapole moment (field-independent basis, Debye-Ang**2):
  XXX=           -421.6967  YYY=           -160.2008  ZZZ=           -814.4218  XYY=           -172.8185
  XXY=            -54.0789  XXZ=           -257.1144  XZZ=           -250.3743  YZZ=            -31.8125
  YYZ=           -228.1511  XYZ=            -18.8020
 Hexadecapole moment (field-independent basis, Debye-Ang**3):
 XXXX=          -4721.9165 YYYY=          -1077.4848 ZZZZ=          -5383.0138 XXXY=            290.8057
 XXXZ=          -1237.2225 YYYX=            386.5789 YYYZ=           -413.9793 ZZZX=          -1577.8939
 ZZZY=           -332.0673 XXYY=          -1034.5789 XXZZ=          -1805.8927 YYZZ=           -989.2888
 XXYZ=           -103.4813 YYXZ=           -430.1124 ZZXY=            110.8656
 N-N= 8.379258456697D+02 E-N=-3.149694839589D+03  KE= 6.296349268941D+02
 1\1\GINC-NXV34\SP\RwB97XD TD-FC\6-311++G(d,p)\C11H13N1O2\CA12053\18-Se
 p-2017\0\\# wb97xd 6-311++g** td=(singlets,nstates=1) nosymm\\Monomer 
 Exictation J1\\0,1\H,0,0.808278,1.713509,1.799433\C,0,0.58142,1.29356,
 2.767584\C,0,1.556037,0.458959,3.442038\C,0,-0.601627,1.545703,3.38914
 4\C,0,2.845109,0.14651,2.769383\O,0,1.348961,0.019626,4.588492\H,0,-0.
 779696,1.063129,4.346396\N,0,-1.587574,2.356426,2.962433\C,0,3.890255,
 -0.444474,3.516121\C,0,3.071142,0.419696,1.412774\H,0,2.81613,-0.58938
 6,5.038175\C,0,-1.484488,3.046062,1.692542\C,0,-2.886045,2.353027,3.60
 5579\C,0,5.126913,-0.690212,2.908777\O,0,3.754973,-0.77987,4.802038\C,
 0,4.285648,0.1487,0.811836\H,0,2.271593,0.831557,0.811104\H,0,-1.66219
 7,2.369891,0.84792\H,0,-2.224397,3.847997,1.661639\H,0,-0.493171,3.489
 494,1.582694\H,0,-2.818827,1.853707,4.572311\H,0,-3.231297,3.379298,3.
 768317\H,0,-3.632013,1.829713,2.993364\C,0,5.31983,-0.396616,1.574026\
 H,0,5.912601,-1.124016,3.514929\H,0,4.426974,0.351858,-0.24245\H,0,6.2
 81884,-0.60106,1.116508\\Version=ES64L-G09RevD.01\HF=-632.1523968\RMSD
 =8.100e-09\PG=C01 [X(C11H13N1O2)]\\@


 Change starts when someone sees the next step.
                            -- William Drayton
 Job cpu time:       0 days  0 hours 56 minutes  8.1 seconds.
 File lengths (MBytes):  RWF=    156 Int=      0 D2E=      0 Chk=     15 Scr=      1
 Normal termination of Gaussian 09 at Mon Sep 18 15:24:47 2017.
