
     Program PWSCF v.6.1 (svn rev. 13369) starts on  7Nov2017 at 23:39:17 

     This program is part of the open-source Quantum ESPRESSO suite
     for quantum simulation of materials; please cite
         "P. Giannozzi et al., J. Phys.:Condens. Matter 21 395502 (2009);
          URL http://www.quantum-espresso.org", 
     in publications or presentations arising from this work. More details at
     http://www.quantum-espresso.org/quote

     Parallel version (MPI), running on     1 processors
     Waiting for input...
     Reading input from standard input

     Current dimensions of program PWSCF are:
     Max number of different atomic species (ntypx) = 10
     Max number of k-points (npk) =  40000
     Max angular momentum in pseudopotentials (lmaxx) =  3
     Message from routine iosys:
     london is obsolete, use "vdw_corr='grimme-d2'" instead

     IMPORTANT: XC functional enforced from input :
     Exchange-correlation      = PBE ( 1  4  3  4 0 0)
     Any further DFT definition will be discarded
     Please, verify this is what you really want

               file C.pbe-rrkjus.UPF: wavefunction(s)  2S 2P renormalized
               file H.pbe-rrkjus.UPF: wavefunction(s)  1S renormalized
               file O.pbe-rrkjus.UPF: wavefunction(s)  2S renormalized
               file N.pbe-rrkjus.UPF: wavefunction(s)  2S renormalized

     -------------------------------------
     Parameters for Dispersion Correction:
     -------------------------------------
       atom      VdW radius       C_6     

        C          2.744         60.710
        H          1.892          4.857
        O          2.536         24.284
        N          2.640         42.670

     Subspace diagonalization in iterative solution of the eigenvalue problem:
     a serial algorithm will be used

 
     G-vector sticks info
     --------------------
     sticks:   dense  smooth     PW     G-vecs:    dense   smooth      PW
     Sum        4907    4907   1323               232865   232865   32561
 


     bravais-lattice index     =            0
     lattice parameter (alat)  =      17.3001  a.u.
     unit-cell volume          =   10490.7385 (a.u.)^3
     number of atoms/cell      =          160
     number of atomic types    =            4
     number of electrons       =       432.00
     number of Kohn-Sham states=          216
     kinetic-energy cutoff     =      30.0000  Ry
     charge density cutoff     =     120.0000  Ry
     convergence threshold     =      1.0E-07
     mixing beta               =       0.7000
     number of iterations used =            8  plain     mixing
     Exchange-correlation      = PBE ( 1  4  3  4 0 0)
     nstep                     =           50


     celldm(1)=  17.300066  celldm(2)=   0.000000  celldm(3)=   0.000000
     celldm(4)=   0.000000  celldm(5)=   0.000000  celldm(6)=   0.000000

     crystal axes: (cart. coord. in units of alat)
               a(1) = (   1.000000   0.000000   0.000000 )  
               a(2) = (   0.000000   1.716913   0.000000 )  
               a(3) = (  -0.691800   0.000000   1.180088 )  

     reciprocal axes: (cart. coord. in units 2 pi/alat)
               b(1) = (  1.000000  0.000000  0.586227 )  
               b(2) = (  0.000000  0.582441  0.000000 )  
               b(3) = (  0.000000  0.000000  0.847394 )  


     PseudoPot. # 1 for C  read from file:
     /data/home/btx156/espresso/pseudo/C.pbe-rrkjus.UPF
     MD5 check sum: 00fb224312de0c5b6853bd333518df6f
     Pseudo is Ultrasoft, Zval =  4.0
     Generated by new atomic code, or converted to UPF format
     Using radial grid of  627 points,  4 beta functions with: 
                l(1) =   0
                l(2) =   0
                l(3) =   1
                l(4) =   1
     Q(r) pseudized with 0 coefficients 


     PseudoPot. # 2 for H  read from file:
     /data/home/btx156/espresso/pseudo/H.pbe-rrkjus.UPF
     MD5 check sum: 7cc9d459525c9a0585f487a71c3c9563
     Pseudo is Ultrasoft, Zval =  1.0
     Generated by new atomic code, or converted to UPF format
     Using radial grid of 1061 points,  2 beta functions with: 
                l(1) =   0
                l(2) =   0
     Q(r) pseudized with 0 coefficients 


     PseudoPot. # 3 for O  read from file:
     /data/home/btx156/espresso/pseudo/O.pbe-rrkjus.UPF
     MD5 check sum: 390ba29e75625707450f3bd3f0eb6be9
     Pseudo is Ultrasoft, Zval =  6.0
     Generated by new atomic code, or converted to UPF format
     Using radial grid of 1269 points,  4 beta functions with: 
                l(1) =   0
                l(2) =   0
                l(3) =   1
                l(4) =   1
     Q(r) pseudized with 0 coefficients 


     PseudoPot. # 4 for N  read from file:
     /data/home/btx156/espresso/pseudo/N.pbe-rrkjus.UPF
     MD5 check sum: 0c3fbe5807a93f9ba59d5a7019aa238b
     Pseudo is Ultrasoft, Zval =  5.0
     Generated by new atomic code, or converted to UPF format
     Using radial grid of 1257 points,  4 beta functions with: 
                l(1) =   0
                l(2) =   0
                l(3) =   1
                l(4) =   1
     Q(r) pseudized with 0 coefficients 


     atomic species   valence    mass     pseudopotential
        C              4.00    12.00000     C ( 1.00)
        H              1.00     1.00790     H ( 1.00)
        O              6.00    15.99940     O ( 1.00)
        N              5.00    14.00670     N ( 1.00)

      4 Sym. Ops., with inversion, found ( 2 have fractional translation)



   Cartesian axes

     site n.     atom                  positions (alat units)
         1           C   tau(   1) = (   0.0885623   0.3627671   0.7968541  )
         2           C   tau(   2) = (   0.0336698   0.4629145   0.6979038  )
         3           H   tau(   3) = (   0.0530115   0.4506903   0.5988945  )
         4           C   tau(   4) = (  -0.0488771   0.5802650   0.7426770  )
         5           C   tau(   5) = (  -0.0801011   0.5945504   0.8906125  )
         6           H   tau(   6) = (  -0.1375497   0.6720005   0.9225925  )
         7           C   tau(   7) = (  -0.0267750   0.4953805   0.9901887  )
         8           H   tau(   8) = (  -0.0481551   0.5080351   1.0887490  )
         9           C   tau(   9) = (   0.0591406   0.3755057   0.9471741  )
        10           C   tau(  10) = (   0.1204701   0.2707913   1.0506674  )
        11           C   tau(  11) = (   0.7839690   0.2828614   0.0264932  )
        12           H   tau(  12) = (   0.7248569   0.3583202   0.0599489  )
        13           C   tau(  13) = (   0.8402455   0.1891008   0.1230830  )
        14           H   tau(  14) = (   0.8975674   0.1146896   0.0844945  )
        15           C   tau(  15) = (   0.8232839   0.1887403   0.2802945  )
        16           C   tau(  16) = (   0.7461998   0.2951031   0.3565168  )
        17           H   tau(  17) = (   0.7063693   0.3730851   0.3050531  )
        18           C   tau(  18) = (  -0.2731179   0.2889227   0.5047822  )
        19           H   tau(  19) = (   0.6744604   0.3624405   0.5512190  )
        20           C   tau(  20) = (  -0.2153100   0.1739066   0.5880139  )
        21           C   tau(  21) = (  -0.1343492   0.0684701   0.5125125  )
        22           H   tau(  22) = (  -0.0920424   1.7086719   0.5638463  )
        23           C   tau(  23) = (  -0.1165585   0.0765576   0.3642930  )
        24           H   tau(  24) = (  -0.0622329   0.0044643   0.3176792  )
        25           C   tau(  25) = (  -0.3319909   0.2693155   0.8087145  )
        26           H   tau(  26) = (  -0.2966739   0.3669048   0.7938447  )
        27           H   tau(  27) = (  -0.3336774   0.2480939   0.9113820  )
        28           H   tau(  28) = (  -0.4288919   0.2607987   0.7696530  )
        29           C   tau(  29) = (  -0.1762005   0.0499454   0.8216957  )
        30           H   tau(  30) = (  -0.2194739   1.6760507   0.7923111  )
        31           H   tau(  31) = (  -0.1962260   0.0671309   0.9230644  )
        32           H   tau(  32) = (  -0.0724833   0.0456700   0.8068259  )
        33           C   tau(  33) = (  -0.1040809   0.6913837   0.6345338  )
        34           H   tau(  34) = (  -0.1547352   0.7678037   0.6856316  )
        35           H   tau(  35) = (  -0.1697481   0.6450441   0.5672685  )
        36           H   tau(  36) = (  -0.0231267   0.7322639   0.5819013  )
        37           N   tau(  37) = (  -0.2367501   0.1672784   0.7354666  )
        38           O   tau(  38) = (   0.1728721   0.2536909   0.7437857  )
        39           H   tau(  39) = (   0.1989262   0.2007067   0.8110739  )
        40           O   tau(  40) = (   0.2012201   0.1703860   1.0041836  )
        41           H   tau(  41) = (  -0.0907120   1.3091471   1.1712369  )
        42           H   tau(  42) = (   0.2551885   1.2662242   0.5811934  )
        43           H   tau(  43) = (   0.3989120   0.4077675   0.0088511  )
        44           C   tau(  44) = (   0.0111777   1.4387217   1.0274555  )
        45           C   tau(  45) = (   0.3570771   1.1366485   0.4374110  )
        46           C   tau(  46) = (   0.2970223   0.2781918   0.1526325  )
        47           C   tau(  47) = (   0.0424018   1.4530071   0.8795200  )
        48           C   tau(  48) = (   0.3883012   1.1223631   0.2894755  )
        49           C   tau(  49) = (   0.2657983   0.2639064   0.3005680  )
        50           H   tau(  50) = (   0.0998493   1.5304572   0.8475390  )
        51           H   tau(  51) = (   0.4457498   1.0449130   0.2574955  )
        52           H   tau(  52) = (   0.2083508   0.1864563   0.3325490  )
        53           C   tau(  53) = (  -0.0109243   1.3538373   0.7799438  )
        54           C   tau(  54) = (   0.3349751   1.2215329   0.1898993  )
        55           C   tau(  55) = (   0.3191244   0.3630762   0.4001442  )
        56           H   tau(  56) = (   0.0104546   1.3664918   0.6813824  )
        57           H   tau(  57) = (   0.3563551   1.2088783   0.0913390  )
        58           H   tau(  58) = (   0.2977454   0.3504216   0.4987056  )
        59           C   tau(  59) = (  -0.0968410   1.2339625   0.8229584  )
        60           C   tau(  60) = (   0.2490595   1.3414077   0.2329139  )
        61           C   tau(  61) = (   0.4050411   0.4829510   0.3571296  )
        62           C   tau(  62) = (  -0.1581695   1.1292480   0.7194641  )
        63           C   tau(  63) = (   0.1877299   1.4461222   0.1294206  )
        64           C   tau(  64) = (   0.4663695   0.5876655   0.4606239  )
        65           C   tau(  65) = (  -0.1298696   1.1413182   0.5635513  )
        66           C   tau(  66) = (  -0.4757690   1.4340520   1.1535948  )
        67           C   tau(  67) = (   0.4380696   0.5755953   0.6165367  )
        68           H   tau(  68) = (  -0.0707563   1.2167769   0.5300957  )
        69           H   tau(  69) = (  -0.4166568   1.3585932   1.1201391  )
        70           H   tau(  70) = (   0.3789564   0.5001365   0.6499923  )
        71           C   tau(  71) = (  -0.1861450   1.0475575   0.4669605  )
        72           C   tau(  72) = (  -0.5320455   1.5278127   1.0570050  )
        73           C   tau(  73) = (   0.4943450   0.6693559   0.7131275  )
        74           H   tau(  74) = (  -0.2434668   0.9731463   0.5055501  )
        75           H   tau(  75) = (  -0.5893673   1.6022239   1.0955935  )
        76           H   tau(  76) = (   0.5516669   0.7437672   0.6745379  )
        77           C   tau(  77) = (  -0.1691834   1.0471971   0.3097490  )
        78           C   tau(  78) = (  -0.5150839   1.5281731   0.8997935  )
        79           C   tau(  79) = (   0.4773834   0.6697164   0.8703390  )
        80           C   tau(  80) = (  -0.0921003   1.1535598   0.2335278  )
        81           C   tau(  81) = (  -0.4379997   1.4218104   0.8235712  )
        82           C   tau(  82) = (   0.4003004   0.5633536   0.9465602  )
        83           C   tau(  83) = (   0.0663805   1.5498405   1.1355988  )
        84           C   tau(  84) = (   0.4122810   1.0255297   0.5455542  )
        85           C   tau(  85) = (   0.2418196   0.1670730   0.0444892  )
        86           H   tau(  86) = (  -0.0522698   1.2315419   0.2849915  )
        87           H   tau(  87) = (  -0.3981692   1.3438283   0.8750349  )
        88           H   tau(  88) = (   0.3604699   0.4853716   0.8950965  )
        89           C   tau(  89) = (   0.9272174   1.1473795   0.0852613  )
        90           C   tau(  90) = (   0.5813180   1.4279907   0.6753058  )
        91           C   tau(  91) = (  -0.6190173   0.5695340   1.0948267  )
        92           H   tau(  92) = (  -0.0203598   1.2208972   0.0388244  )
        93           H   tau(  93) = (  -0.3662603   1.3544730   0.6288690  )
        94           H   tau(  94) = (   0.3285599   0.4960163   1.1412635  )
        95           C   tau(  95) = (   0.8694105   1.0323633   0.0020295  )
        96           C   tau(  96) = (   0.5235100   1.5430069   0.5920741  )
        97           C   tau(  97) = (  -0.5612105   0.6845502   1.1780585  )
        98           C   tau(  98) = (   0.7884486   0.9269268   0.0775320  )
        99           C   tau(  99) = (   0.4425492   1.6484434   0.6675754  )
       100           C   tau( 100) = (  -0.4802486   0.7899866   1.1025560  )
       101           H   tau( 101) = (   0.7461419   0.8502151   0.0261983  )
       102           H   tau( 102) = (   0.4002425   0.0082416   0.6162417  )
       103           H   tau( 103) = (  -0.4379418   0.8666983   1.1538897  )
       104           C   tau( 104) = (   0.7706591   0.9350144   0.2257504  )
       105           C   tau( 105) = (   0.4247586   1.6403558   0.8157950  )
       106           C   tau( 106) = (  -0.4624590   0.7818991   0.9543376  )
       107           H   tau( 107) = (   0.7163324   0.8629211   0.2723642  )
       108           H   tau( 108) = (   0.3704330   1.7124491   0.8624088  )
       109           H   tau( 109) = (  -0.4081323   0.8539924   0.9077238  )
       110           C   tau( 110) = (   0.2942904   1.1277723   0.9614180  )
       111           C   tau( 111) = (   0.6401909   1.4475979   0.3713735  )
       112           C   tau( 112) = (   0.0139096   0.5891412   0.2186700  )
       113           H   tau( 113) = (   0.2589734   1.2253615   0.9762867  )
       114           H   tau( 114) = (   0.6048739   1.3500087   0.3862433  )
       115           H   tau( 115) = (   0.0492266   0.4915520   0.2038013  )
       116           H   tau( 116) = (   0.2959770   1.1065506   0.8587506  )
       117           H   tau( 117) = (   0.6418775   1.4688196   0.2687060  )
       118           H   tau( 118) = (   0.0122231   0.6103628   0.3213374  )
       119           H   tau( 119) = (   0.3911915   1.1192554   1.0004784  )
       120           H   tau( 120) = (   0.7370920   1.4561148   0.4104349  )
       121           H   tau( 121) = (  -0.0829914   0.5976580   0.1796096  )
       122           C   tau( 122) = (   0.1385000   0.9084021   0.9484368  )
       123           C   tau( 123) = (   0.4844005   1.6669681   0.3583923  )
       124           C   tau( 124) = (   0.1697000   0.8085113   0.2316511  )
       125           H   tau( 125) = (   0.1817746   0.8175940   0.9778214  )
       126           H   tau( 126) = (   0.5276740   0.0408627   0.3877769  )
       127           H   tau( 127) = (   0.1264255   0.8993194   0.2022666  )
       128           H   tau( 128) = (   0.1585256   0.9255876   0.8470671  )
       129           H   tau( 129) = (   0.5044261   1.6497826   0.2570236  )
       130           H   tau( 130) = (   0.1496745   0.7913258   0.3330209  )
       131           H   tau( 131) = (   0.0347839   0.9041268   0.9633055  )
       132           H   tau( 132) = (   0.3806833   1.6712434   0.3732621  )
       133           H   tau( 133) = (   0.2734161   0.8127867   0.2167824  )
       134           H   tau( 134) = (   0.1170359   1.6262605   1.0845010  )
       135           H   tau( 135) = (   0.4629353   0.9491097   0.4944564  )
       136           H   tau( 136) = (   0.1911642   0.0906530   0.0955870  )
       137           H   tau( 137) = (   0.8238487   1.5035008   0.0227760  )
       138           H   tau( 138) = (   0.4779482   1.0718694   0.6128195  )
       139           H   tau( 139) = (  -0.5156486   0.2134126   1.1573120  )
       140           H   tau( 140) = (   0.6772261   1.5907206   0.0081422  )
       141           H   tau( 141) = (   0.3313267   0.9846495   0.5981867  )
       142           H   tau( 142) = (  -0.3690261   0.1261928   1.1719458  )
       143           N   tau( 143) = (   0.1990508   1.0257351   1.0346659  )
       144           N   tau( 144) = (   0.5449502   1.5496351   0.4446214  )
       145           N   tau( 145) = (   0.1091493   0.6911784   0.1454221  )
       146           O   tau( 146) = (  -0.2105726   1.1121477   1.0263457  )
       147           O   tau( 147) = (   0.1353279   1.4632225   0.4363022  )
       148           O   tau( 148) = (   0.5187726   0.6047658   0.1537423  )
       149           H   tau( 149) = (  -0.2366256   1.0591635   0.9590575  )
       150           H   tau( 150) = (   0.1092738   1.5162067   0.3690141  )
       151           H   tau( 151) = (   0.5448256   0.6577500   0.2210305  )
       152           O   tau( 152) = (  -0.2389195   1.0288427   0.7659479  )
       153           O   tau( 153) = (   0.1069799   1.5465274   0.1759044  )
       154           O   tau( 154) = (   0.5471195   0.6880707   0.4141401  )
       155           C   tau( 155) = (  -0.1262616   1.2212238   0.9732774  )
       156           C   tau( 156) = (   0.2196378   1.3541464   0.3832339  )
       157           C   tau( 157) = (   0.4344617   0.4956897   0.2068106  )
       158           C   tau( 158) = (  -0.0713691   1.3213712   1.0722276  )
       159           C   tau( 159) = (   0.2745303   1.2539989   0.4821842  )
       160           C   tau( 160) = (   0.3795692   0.3955422   0.1078604  )

     number of k points=     2
                       cart. coord. in units 2pi/alat
        k(    1) = (   0.0000000   0.0000000   0.0000000), wk =   1.0000000
        k(    2) = (  -0.5000000   0.0000000  -0.2931137), wk =   1.0000000

     Dense  grid:   232865 G-vectors     FFT dimensions: (  64, 108,  90)

     Estimated max dynamical RAM per process >    1593.53MB

     Initial potential from superposition of free atoms

     starting charge  424.68464, renormalised to  432.00000
     Starting wfc are  412 randomized atomic wfcs

     total cpu time spent up to now is      131.8 secs

     per-process dynamical memory:   839.0 Mb

     Self-consistent Calculation

     iteration #  1     ecut=    30.00 Ry     beta=0.70
     Davidson diagonalization with overlap
     ethr =  1.00E-02,  avg # of iterations =  2.0

     total cpu time spent up to now is      367.0 secs

     total energy              =   -1230.50827761 Ry
     Harris-Foulkes estimate   =   -1259.05197585 Ry
     estimated scf accuracy    <      42.51234911 Ry

     iteration #  2     ecut=    30.00 Ry     beta=0.70
     Davidson diagonalization with overlap
     ethr =  9.84E-03,  avg # of iterations =  3.0

     total cpu time spent up to now is      611.1 secs

     total energy              =   -1235.81928318 Ry
     Harris-Foulkes estimate   =   -1246.98864337 Ry
     estimated scf accuracy    <      19.31413293 Ry

     iteration #  3     ecut=    30.00 Ry     beta=0.70
     Davidson diagonalization with overlap
     ethr =  4.47E-03,  avg # of iterations =  4.0

     total cpu time spent up to now is      842.9 secs

     total energy              =   -1240.52344186 Ry
     Harris-Foulkes estimate   =   -1243.00221799 Ry
     estimated scf accuracy    <       5.03354996 Ry

     iteration #  4     ecut=    30.00 Ry     beta=0.70
     Davidson diagonalization with overlap
     ethr =  1.17E-03,  avg # of iterations =  4.0

     total cpu time spent up to now is     1052.6 secs

     total energy              =   -1241.62992946 Ry
     Harris-Foulkes estimate   =   -1241.91333514 Ry
     estimated scf accuracy    <       0.58482787 Ry

     iteration #  5     ecut=    30.00 Ry     beta=0.70
     Davidson diagonalization with overlap
     ethr =  1.35E-04,  avg # of iterations =  4.0

     total cpu time spent up to now is     1282.5 secs

     total energy              =   -1241.75621037 Ry
     Harris-Foulkes estimate   =   -1241.78720022 Ry
     estimated scf accuracy    <       0.06205931 Ry

     iteration #  6     ecut=    30.00 Ry     beta=0.70
     Davidson diagonalization with overlap
     ethr =  1.44E-05,  avg # of iterations =  4.0

     total cpu time spent up to now is     1519.2 secs

     total energy              =   -1241.77081257 Ry
     Harris-Foulkes estimate   =   -1241.77446544 Ry
     estimated scf accuracy    <       0.00778461 Ry

     iteration #  7     ecut=    30.00 Ry     beta=0.70
     Davidson diagonalization with overlap
     ethr =  1.80E-06,  avg # of iterations =  4.0

     total cpu time spent up to now is     1744.8 secs

     total energy              =   -1241.77249872 Ry
     Harris-Foulkes estimate   =   -1241.77325944 Ry
     estimated scf accuracy    <       0.00166254 Ry

     iteration #  8     ecut=    30.00 Ry     beta=0.70
     Davidson diagonalization with overlap
     ethr =  3.85E-07,  avg # of iterations =  4.0

     total cpu time spent up to now is     1959.7 secs

     total energy              =   -1241.77284751 Ry
     Harris-Foulkes estimate   =   -1241.77299093 Ry
     estimated scf accuracy    <       0.00031678 Ry

     iteration #  9     ecut=    30.00 Ry     beta=0.70
     Davidson diagonalization with overlap
     ethr =  7.33E-08,  avg # of iterations =  4.0

     total cpu time spent up to now is     2170.7 secs

     total energy              =   -1241.77291751 Ry
     Harris-Foulkes estimate   =   -1241.77294677 Ry
     estimated scf accuracy    <       0.00006841 Ry

     iteration # 10     ecut=    30.00 Ry     beta=0.70
     Davidson diagonalization with overlap
     ethr =  1.58E-08,  avg # of iterations =  4.0

     total cpu time spent up to now is     2378.6 secs

     total energy              =   -1241.77293148 Ry
     Harris-Foulkes estimate   =   -1241.77293519 Ry
     estimated scf accuracy    <       0.00000833 Ry

     iteration # 11     ecut=    30.00 Ry     beta=0.70
     Davidson diagonalization with overlap
     ethr =  1.93E-09,  avg # of iterations =  5.0

     total cpu time spent up to now is     2587.0 secs

     total energy              =   -1241.77293334 Ry
     Harris-Foulkes estimate   =   -1241.77293365 Ry
     estimated scf accuracy    <       0.00000072 Ry

     iteration # 12     ecut=    30.00 Ry     beta=0.70
     Davidson diagonalization with overlap
     ethr =  1.66E-10,  avg # of iterations =  4.5

     total cpu time spent up to now is     2809.0 secs

     total energy              =   -1241.77293352 Ry
     Harris-Foulkes estimate   =   -1241.77293360 Ry
     estimated scf accuracy    <       0.00000021 Ry

     iteration # 13     ecut=    30.00 Ry     beta=0.70
     Davidson diagonalization with overlap
     ethr =  4.85E-11,  avg # of iterations =  4.0

     total cpu time spent up to now is     3017.4 secs

     End of self-consistent calculation

          k = 0.0000 0.0000 0.0000 ( 29063 PWs)   bands (ev):

   -21.7928 -21.7927 -21.7923 -21.7922 -19.6937 -19.6930 -19.6928 -19.6922
   -18.2805 -18.2797 -18.2596 -18.2588 -15.8327 -15.8271 -15.8164 -15.8130
   -15.6558 -15.6459 -15.6322 -15.6258 -14.2877 -14.2761 -14.2511 -14.2376
   -13.8988 -13.8657 -13.8628 -13.8354 -13.4008 -13.3842 -13.3775 -13.3593
   -13.1545 -13.1531 -13.1111 -13.1064 -12.9428 -12.9408 -12.9086 -12.9040
   -12.8249 -12.8122 -12.8077 -12.7844 -12.1422 -12.1349 -12.0849 -12.0842
   -11.2947 -11.2783 -11.2765 -11.2748 -10.2706 -10.2604 -10.2065 -10.2033
    -9.9986  -9.9770  -9.9581  -9.9574  -9.8777  -9.8759  -9.7847  -9.7569
    -9.7504  -9.7132  -9.7080  -9.6644  -8.9152  -8.9027  -8.8905  -8.8448
    -8.2219  -8.2101  -8.1973  -8.1891  -7.8370  -7.8060  -7.7775  -7.7580
    -7.2903  -7.2704  -7.2629  -7.2346  -7.1679  -7.1324  -7.1167  -7.1068
    -6.4405  -6.4228  -6.4199  -6.4176  -6.4080  -6.3675  -6.3671  -6.3485
    -6.3418  -6.3282  -6.2246  -6.2169  -6.0727  -6.0310  -5.9767  -5.9444
    -5.8267  -5.8073  -5.7803  -5.7160  -5.5908  -5.5765  -5.3217  -5.3209
    -5.2644  -5.2063  -5.1582  -5.1555  -5.1477  -5.0993  -5.0770  -5.0420
    -5.0133  -5.0029  -4.9896  -4.9772  -4.9523  -4.9484  -4.9269  -4.9058
    -4.8756  -4.8626  -4.8421  -4.8296  -4.6348  -4.5958  -4.5848  -4.5787
    -4.5194  -4.5092  -4.4597  -4.3889  -4.3764  -4.3651  -4.3466  -4.3141
    -4.2844  -4.2738  -4.2472  -4.2358  -4.0071  -4.0036  -3.9974  -3.9471
    -3.8270  -3.8109  -3.7442  -3.7077  -3.6558  -3.6145  -3.6090  -3.5551
    -3.4595  -3.4540  -3.4503  -3.4213  -3.3766  -3.3215  -3.2962  -3.2836
    -3.1334  -3.0931  -3.0884  -3.0490  -3.0368  -3.0042  -2.9974  -2.9738
    -2.6145  -2.5755  -2.4617  -2.4506  -2.4129  -2.4013  -2.3796  -2.3660
    -2.3593  -2.3339  -2.3114  -2.2864  -2.1175  -2.0984  -1.9931  -1.9918
    -0.7042  -0.6975  -0.6897  -0.6820  -0.6183  -0.5896  -0.5781  -0.5370
    -0.4966  -0.3994  -0.3976  -0.3860   0.0377   0.0442   0.0577   0.0599
     0.0623   0.0704   0.0729   0.0849   1.1508   1.1811   1.1867   1.2049

          k =-0.5000 0.0000-0.2931 ( 29122 PWs)   bands (ev):

   -21.7929 -21.7927 -21.7924 -21.7923 -19.6937 -19.6931 -19.6928 -19.6922
   -18.2805 -18.2798 -18.2596 -18.2588 -15.8281 -15.8278 -15.8161 -15.8129
   -15.6556 -15.6490 -15.6324 -15.6293 -14.2558 -14.2554 -14.2501 -14.2480
   -13.9142 -13.8888 -13.8718 -13.8529 -13.4028 -13.3849 -13.3711 -13.3580
   -13.1594 -13.1560 -13.1245 -13.1190 -12.9290 -12.9208 -12.8945 -12.8842
   -12.8338 -12.8127 -12.8119 -12.7885 -12.1425 -12.1094 -12.0981 -12.0710
   -11.2985 -11.2955 -11.2716 -11.2638 -10.3026 -10.2690 -10.2295 -10.2104
    -9.9891  -9.9725  -9.9441  -9.9440  -9.8909  -9.8801  -9.7653  -9.7512
    -9.7506  -9.7207  -9.6905  -9.6848  -8.9179  -8.8914  -8.8783  -8.8497
    -8.2268  -8.2137  -8.2093  -8.1723  -7.8408  -7.8061  -7.7691  -7.7575
    -7.2823  -7.2771  -7.2538  -7.2469  -7.1590  -7.1532  -7.1121  -7.0851
    -6.4486  -6.4325  -6.4324  -6.4158  -6.3865  -6.3772  -6.3753  -6.3481
    -6.3392  -6.3241  -6.2175  -6.2158  -6.0521  -6.0165  -5.9652  -5.9462
    -5.8315  -5.8027  -5.7752  -5.7212  -5.6073  -5.6045  -5.3322  -5.3162
    -5.2234  -5.2163  -5.1762  -5.1656  -5.1403  -5.0957  -5.0690  -5.0624
    -5.0214  -4.9990  -4.9831  -4.9613  -4.9593  -4.9526  -4.9381  -4.8976
    -4.8874  -4.8823  -4.8468  -4.8166  -4.5998  -4.5979  -4.5828  -4.5709
    -4.5482  -4.5213  -4.4410  -4.3853  -4.3803  -4.3764  -4.3693  -4.3176
    -4.2858  -4.2676  -4.2411  -4.2244  -4.0255  -4.0029  -3.9725  -3.9522
    -3.7573  -3.7240  -3.7054  -3.6737  -3.6431  -3.6155  -3.6096  -3.5900
    -3.5585  -3.5322  -3.5085  -3.4942  -3.4017  -3.3280  -3.3092  -3.2880
    -3.1678  -3.0798  -3.0725  -3.0462  -3.0182  -3.0136  -3.0041  -2.9757
    -2.5838  -2.5805  -2.4327  -2.4160  -2.4112  -2.3901  -2.3796  -2.3711
    -2.3644  -2.3476  -2.3231  -2.2766  -2.0926  -2.0626  -1.9646  -1.9281
    -0.7456  -0.6911  -0.6809  -0.6528  -0.6292  -0.5628  -0.5610  -0.5551
    -0.5364  -0.4703  -0.4110  -0.3993   0.0330   0.0598   0.0663   0.0679
     0.0867   0.1064   0.1084   0.1127   1.0709   1.1096   1.1366   1.1695

     highest occupied level (ev):     1.2049

!    total energy              =   -1241.77293356 Ry
     Harris-Foulkes estimate   =   -1241.77293357 Ry
     estimated scf accuracy    <       0.00000001 Ry

     The total energy is the sum of the following terms:

     one-electron contribution =   -1212.45975880 Ry
     hartree contribution      =     747.03573338 Ry
     xc contribution           =    -392.02510530 Ry
     ewald contribution        =    -383.67302835 Ry
     Dispersion Correction     =      -0.65077449 Ry

     convergence has been achieved in  13 iterations

     Forces acting on atoms (cartesian axes, Ry/au):

     atom    1 type  1   force =     0.00729624   -0.01021376    0.00188790
     atom    2 type  1   force =    -0.05487210    0.03331690    0.28310977
     atom    3 type  2   force =     0.06818791   -0.04452073   -0.32399450
     atom    4 type  1   force =    -0.00828634    0.01165736    0.00229761
     atom    5 type  1   force =     0.17192224   -0.23222940   -0.09096723
     atom    6 type  2   force =    -0.18809241    0.25486300    0.10648394
     atom    7 type  1   force =     0.07063314   -0.05437539   -0.29763315
     atom    8 type  2   force =    -0.07093981    0.04244237    0.32203557
     atom    9 type  1   force =    -0.01098765    0.01599262    0.00327562
     atom   10 type  1   force =     0.00276653   -0.00372196    0.02281639
     atom   11 type  1   force =     0.15009026   -0.18481704   -0.12630325
     atom   12 type  2   force =    -0.19718232    0.25278053    0.10381566
     atom   13 type  1   force =    -0.15506620    0.19679373    0.16019036
     atom   14 type  2   force =     0.19446168   -0.25403183   -0.12295927
     atom   15 type  1   force =     0.00009106    0.00087510   -0.03074766
     atom   16 type  1   force =     0.11155984   -0.22168714    0.15444551
     atom   17 type  2   force =    -0.13487115    0.25907076   -0.16622621
     atom   18 type  1   force =     0.15047192   -0.21321758   -0.13787378
     atom   19 type  2   force =    -0.17353927    0.24327437    0.14938306
     atom   20 type  1   force =    -0.00753159    0.00300120    0.03243406
     atom   21 type  1   force =    -0.12201143    0.22140462   -0.14443383
     atom   22 type  2   force =     0.14003920   -0.25449103    0.16614688
     atom   23 type  1   force =    -0.15654563    0.20921042    0.13268357
     atom   24 type  2   force =     0.17939929   -0.24020006   -0.15478701
     atom   25 type  1   force =     0.13749555   -0.14033575   -0.11461048
     atom   26 type  2   force =     0.08407193    0.24258029   -0.03276758
     atom   27 type  2   force =    -0.00239072   -0.05166571    0.24403799
     atom   28 type  2   force =    -0.24305272   -0.01835652   -0.09377439
     atom   29 type  1   force =    -0.08163545    0.16426792   -0.13762535
     atom   30 type  2   force =    -0.10583112   -0.22970108   -0.06859120
     atom   31 type  2   force =    -0.04851233    0.04325625    0.24393646
     atom   32 type  2   force =     0.25535285   -0.01255081   -0.03367188
     atom   33 type  1   force =     0.08126342   -0.16807654    0.17127274
     atom   34 type  2   force =    -0.12185220    0.18521224    0.11888503
     atom   35 type  2   force =    -0.16172176   -0.11177115   -0.16839793
     atom   36 type  2   force =     0.19675303    0.09980331   -0.13076774
     atom   37 type  4   force =     0.00885883    0.00160536   -0.02386281
     atom   38 type  3   force =    -0.16601084    0.33863356   -0.45288263
     atom   39 type  2   force =     0.17154340   -0.34465569    0.43860360
     atom   40 type  3   force =     0.01943095   -0.03162143   -0.01417978
     atom   41 type  2   force =    -0.06818791   -0.04452073    0.32399450
     atom   42 type  2   force =    -0.06818791    0.04452073    0.32399450
     atom   43 type  2   force =     0.06818791    0.04452073   -0.32399450
     atom   44 type  1   force =     0.00828634    0.01165736   -0.00229761
     atom   45 type  1   force =     0.00828634   -0.01165736   -0.00229761
     atom   46 type  1   force =    -0.00828634   -0.01165736    0.00229761
     atom   47 type  1   force =    -0.17192224   -0.23222940    0.09096723
     atom   48 type  1   force =    -0.17192224    0.23222940    0.09096723
     atom   49 type  1   force =     0.17192224    0.23222940   -0.09096723
     atom   50 type  2   force =     0.18809241    0.25486300   -0.10648394
     atom   51 type  2   force =     0.18809241   -0.25486300   -0.10648394
     atom   52 type  2   force =    -0.18809241   -0.25486300    0.10648394
     atom   53 type  1   force =    -0.07063314   -0.05437539    0.29763315
     atom   54 type  1   force =    -0.07063314    0.05437539    0.29763315
     atom   55 type  1   force =     0.07063314    0.05437539   -0.29763315
     atom   56 type  2   force =     0.07093981    0.04244237   -0.32203557
     atom   57 type  2   force =     0.07093981   -0.04244237   -0.32203557
     atom   58 type  2   force =    -0.07093981   -0.04244237    0.32203557
     atom   59 type  1   force =     0.01098765    0.01599262   -0.00327562
     atom   60 type  1   force =     0.01098765   -0.01599262   -0.00327562
     atom   61 type  1   force =    -0.01098765   -0.01599262    0.00327562
     atom   62 type  1   force =    -0.00276653   -0.00372196   -0.02281639
     atom   63 type  1   force =    -0.00276653    0.00372196   -0.02281639
     atom   64 type  1   force =     0.00276653    0.00372196    0.02281639
     atom   65 type  1   force =    -0.15009026   -0.18481704    0.12630325
     atom   66 type  1   force =    -0.15009026    0.18481704    0.12630325
     atom   67 type  1   force =     0.15009026    0.18481704   -0.12630325
     atom   68 type  2   force =     0.19718232    0.25278053   -0.10381566
     atom   69 type  2   force =     0.19718232   -0.25278053   -0.10381566
     atom   70 type  2   force =    -0.19718232   -0.25278053    0.10381566
     atom   71 type  1   force =     0.15506620    0.19679373   -0.16019036
     atom   72 type  1   force =     0.15506620   -0.19679373   -0.16019036
     atom   73 type  1   force =    -0.15506620   -0.19679373    0.16019036
     atom   74 type  2   force =    -0.19446168   -0.25403183    0.12295927
     atom   75 type  2   force =    -0.19446168    0.25403183    0.12295927
     atom   76 type  2   force =     0.19446168    0.25403183   -0.12295927
     atom   77 type  1   force =    -0.00009106    0.00087510    0.03074766
     atom   78 type  1   force =    -0.00009106   -0.00087510    0.03074766
     atom   79 type  1   force =     0.00009106   -0.00087510   -0.03074766
     atom   80 type  1   force =    -0.11155984   -0.22168714   -0.15444551
     atom   81 type  1   force =    -0.11155984    0.22168714   -0.15444551
     atom   82 type  1   force =     0.11155984    0.22168714    0.15444551
     atom   83 type  1   force =    -0.08126342   -0.16807654   -0.17127274
     atom   84 type  1   force =    -0.08126342    0.16807654   -0.17127274
     atom   85 type  1   force =     0.08126342    0.16807654    0.17127274
     atom   86 type  2   force =     0.13487115    0.25907076    0.16622621
     atom   87 type  2   force =     0.13487115   -0.25907076    0.16622621
     atom   88 type  2   force =    -0.13487115   -0.25907076   -0.16622621
     atom   89 type  1   force =    -0.15047192   -0.21321758    0.13787378
     atom   90 type  1   force =    -0.15047192    0.21321758    0.13787378
     atom   91 type  1   force =     0.15047192    0.21321758   -0.13787378
     atom   92 type  2   force =     0.17353927    0.24327437   -0.14938306
     atom   93 type  2   force =     0.17353927   -0.24327437   -0.14938306
     atom   94 type  2   force =    -0.17353927   -0.24327437    0.14938306
     atom   95 type  1   force =     0.00753159    0.00300120   -0.03243406
     atom   96 type  1   force =     0.00753159   -0.00300120   -0.03243406
     atom   97 type  1   force =    -0.00753159   -0.00300120    0.03243406
     atom   98 type  1   force =     0.12201143    0.22140462    0.14443383
     atom   99 type  1   force =     0.12201143   -0.22140462    0.14443383
     atom  100 type  1   force =    -0.12201143   -0.22140462   -0.14443383
     atom  101 type  2   force =    -0.14003920   -0.25449103   -0.16614688
     atom  102 type  2   force =    -0.14003920    0.25449103   -0.16614688
     atom  103 type  2   force =     0.14003920    0.25449103    0.16614688
     atom  104 type  1   force =     0.15654563    0.20921042   -0.13268357
     atom  105 type  1   force =     0.15654563   -0.20921042   -0.13268357
     atom  106 type  1   force =    -0.15654563   -0.20921042    0.13268357
     atom  107 type  2   force =    -0.17939929   -0.24020006    0.15478701
     atom  108 type  2   force =    -0.17939929    0.24020006    0.15478701
     atom  109 type  2   force =     0.17939929    0.24020006   -0.15478701
     atom  110 type  1   force =    -0.13749555   -0.14033575    0.11461048
     atom  111 type  1   force =    -0.13749555    0.14033575    0.11461048
     atom  112 type  1   force =     0.13749555    0.14033575   -0.11461048
     atom  113 type  2   force =    -0.08407193    0.24258029    0.03276758
     atom  114 type  2   force =    -0.08407193   -0.24258029    0.03276758
     atom  115 type  2   force =     0.08407193   -0.24258029   -0.03276758
     atom  116 type  2   force =     0.00239072   -0.05166571   -0.24403799
     atom  117 type  2   force =     0.00239072    0.05166571   -0.24403799
     atom  118 type  2   force =    -0.00239072    0.05166571    0.24403799
     atom  119 type  2   force =     0.24305272   -0.01835652    0.09377439
     atom  120 type  2   force =     0.24305272    0.01835652    0.09377439
     atom  121 type  2   force =    -0.24305272    0.01835652   -0.09377439
     atom  122 type  1   force =     0.08163545    0.16426792    0.13762535
     atom  123 type  1   force =     0.08163545   -0.16426792    0.13762535
     atom  124 type  1   force =    -0.08163545   -0.16426792   -0.13762535
     atom  125 type  2   force =     0.10583112   -0.22970108    0.06859120
     atom  126 type  2   force =     0.10583112    0.22970108    0.06859120
     atom  127 type  2   force =    -0.10583112    0.22970108   -0.06859120
     atom  128 type  2   force =     0.04851233    0.04325625   -0.24393646
     atom  129 type  2   force =     0.04851233   -0.04325625   -0.24393646
     atom  130 type  2   force =    -0.04851233   -0.04325625    0.24393646
     atom  131 type  2   force =    -0.25535285   -0.01255081    0.03367188
     atom  132 type  2   force =    -0.25535285    0.01255081    0.03367188
     atom  133 type  2   force =     0.25535285    0.01255081   -0.03367188
     atom  134 type  2   force =     0.12185220    0.18521224   -0.11888503
     atom  135 type  2   force =     0.12185220   -0.18521224   -0.11888503
     atom  136 type  2   force =    -0.12185220   -0.18521224    0.11888503
     atom  137 type  2   force =     0.16172176   -0.11177115    0.16839793
     atom  138 type  2   force =     0.16172176    0.11177115    0.16839793
     atom  139 type  2   force =    -0.16172176    0.11177115   -0.16839793
     atom  140 type  2   force =    -0.19675303    0.09980331    0.13076774
     atom  141 type  2   force =    -0.19675303   -0.09980331    0.13076774
     atom  142 type  2   force =     0.19675303   -0.09980331   -0.13076774
     atom  143 type  4   force =    -0.00885883    0.00160536    0.02386281
     atom  144 type  4   force =    -0.00885883   -0.00160536    0.02386281
     atom  145 type  4   force =     0.00885883   -0.00160536   -0.02386281
     atom  146 type  3   force =     0.16601084    0.33863356    0.45288263
     atom  147 type  3   force =     0.16601084   -0.33863356    0.45288263
     atom  148 type  3   force =    -0.16601084   -0.33863356   -0.45288263
     atom  149 type  2   force =    -0.17154340   -0.34465569   -0.43860360
     atom  150 type  2   force =    -0.17154340    0.34465569   -0.43860360
     atom  151 type  2   force =     0.17154340    0.34465569    0.43860360
     atom  152 type  3   force =    -0.01943095   -0.03162143    0.01417978
     atom  153 type  3   force =    -0.01943095    0.03162143    0.01417978
     atom  154 type  3   force =     0.01943095    0.03162143   -0.01417978
     atom  155 type  1   force =    -0.00729624   -0.01021376   -0.00188790
     atom  156 type  1   force =    -0.00729624    0.01021376   -0.00188790
     atom  157 type  1   force =     0.00729624    0.01021376    0.00188790
     atom  158 type  1   force =     0.05487210    0.03331690   -0.28310977
     atom  159 type  1   force =     0.05487210   -0.03331690   -0.28310977
     atom  160 type  1   force =    -0.05487210   -0.03331690    0.28310977

     Total force =     3.603588     Total SCF correction =     0.000282

     BFGS Geometry Optimization

     number of scf cycles    =   1
     number of bfgs steps    =   0

     energy   new            =   -1241.7729335598 Ry

     new trust radius        =       0.5000000000 bohr
     new conv_thr            =       0.0000001000 Ry


ATOMIC_POSITIONS (angstrom)
C        0.814045639   3.316474542   7.295887572
C        0.283605233   4.252847583   6.516271810
H        0.515922887   4.105992470   5.337303037
C       -0.451180144   5.317443560   6.800091508
C       -0.656125704   5.338730875   8.112540366
H       -1.343683874   6.266450458   8.493955845
C       -0.213409332   4.510698232   8.931357934
H       -0.472698348   4.670014454  10.111857506
C        0.536487107   3.444859869   8.672660586
C        1.104122028   2.477369031   9.628893392
C        7.244462852   2.506566600   0.185836300
H        6.547395219   3.393835533   0.595427924
C        7.622663207   1.819530323   1.198717282
H        8.304353350   0.935912696   0.718327574
C        7.537040879   1.728272877   2.552235872
C        6.881394662   2.602083809   3.333178137
H        6.406119748   3.531829525   2.718072930
C       -2.432785800   2.549306209   4.559281724
H        6.096639741   3.427287754   5.113365358
C       -1.974501299   1.593427386   5.397711235
C       -1.284716893   0.726229356   4.627106593
H       -0.779759559  15.528296537   5.236491455
C       -1.137350984   0.794794783   3.394598139
H       -0.489188892  -0.066967544   2.838798546
C       -2.977581530   2.402526424   7.352165753
H       -2.678246003   3.467846147   7.252779032
H       -3.055823311   2.248054737   8.453080581
H       -4.035538243   2.379318863   7.003920092
C       -1.649730143   0.530987897   7.460673254
H       -2.056752763  15.240785960   7.222656057
H       -1.818189557   0.633989845   8.559984998
H       -0.548929626   0.412465330   7.371213046
C       -0.916356880   6.254022229   5.885922703
H       -1.471275407   7.112240824   6.330193299
H       -1.626614803   5.855070470   5.117627941
H       -0.123387949   6.748536583   5.268481970
N       -2.163422839   1.532120724   6.722336820
O        1.508079621   2.474519152   6.605888853
H        1.898144215   1.682697218   7.622130593
O        1.850853503   1.545653597   9.186734002
H       -0.861062887  11.964992470  10.867896963
H        2.305587113  11.612017530   5.466166963
H        3.682572887   3.753017530  -0.064426963
C        0.106050144  13.176443560   9.405118492
C        3.272690144  10.400556440   4.003378492
C        2.715459856   2.541556440   1.398351508
C        0.310995704  13.197730875   8.092669634
C        3.477635704  10.379269125   2.690929634
C        2.510514296   2.520269125   2.710800366
H        0.998543874  14.125450458   7.711244155
H        4.165193874   9.451549542   2.309514155
H        1.822966126   1.592549542   3.092225845
C       -0.131720668  12.369698232   7.273852066
C        3.034919332  11.207301768   1.872112066
C        2.953230668   3.348301768   3.529617934
H        0.127558348  12.529014454   6.093342494
H        3.294208348  11.047985546   0.691612494
H        2.693951652   3.188985546   4.710127506
C       -0.881627107  11.303859869   7.532549414
C        2.285022893  12.273140131   2.130809414
C        3.703137107   4.414140131   3.270920586
C       -1.449252028  10.336369031   6.576306608
C        1.717387972  13.240630969   1.174576608
C        4.270762028   5.381630969   4.227163392
C       -1.256312852  10.365566600   5.215903700
C       -4.422952852  13.211433400  10.617633700
C        4.077822852   5.352433400   5.587566300
H       -0.559235219  11.252835533   4.806312076
H       -3.725885219  12.324164467  10.208042076
H        3.380745219   4.465164467   5.997157924
C       -1.634503207   9.678530323   4.203012718
C       -4.801153207  13.898469677   9.604752718
C        4.456013207   6.039469677   6.600457282
H       -2.316193350   8.794912696   4.683412426
H       -5.482843350  14.782087304  10.085142426
H        5.137703350   6.923087304   6.120057574
C       -1.548880879   9.587272877   2.849494128
C       -4.715530879  13.989727123   8.251234128
C        4.370390879   6.130727123   7.953975872
C       -0.893244662  10.461083809   2.068561863
C       -4.059884662  13.115916191   7.470291863
C        3.714754662   5.256916191   8.734908137
C        0.571216880  14.113022229  10.319287297
C        3.737866880   9.463977771   4.917547297
C        2.250293120   1.604977771   0.484182703
H       -0.417969748  11.390829525   2.683667070
H       -3.584609748  12.186170475   8.085397070
H        3.239479748   4.327170475   8.119802930
C        8.420935800  10.408306209   0.842448276
C        5.254295800  13.168693791   6.244188276
C       -5.599425800   5.309693791   9.961021724
H       -0.108479741  11.286287754   0.288364642
H       -3.275129741  12.290712246   5.690104642
H        2.929989741   4.431712246  10.515105358
C        7.962661299   9.452427386   0.004018765
C        4.796011299  14.124572614   5.405758765
C       -5.141151299   6.265572614  10.799451235
C        7.272866893   8.585229356   0.774633407
C        4.106226893  14.991770644   6.176363407
C       -4.451356893   7.132770644  10.028836593
H        6.767909559   7.669296537   0.165248545
H        3.601269559   0.189703463   5.566978545
H       -3.946399559   8.048703463  10.638221455
C        7.125510984   8.653794783   2.007131861
C        3.958860984  14.923205217   7.408871861
C       -4.304000984   7.064205217   8.796338139
H        6.477338892   7.792032456   2.562931454
H        3.310698892  15.784967544   7.964671454
H       -3.655828892   7.925967544   8.240538546
C        2.632441530  10.261526424   8.853044247
C        5.799091530  13.315473576   3.451304247
C        0.189068470   5.456473576   1.950425753
H        2.333106003  11.326846147   8.952420968
H        5.499756003  12.250153853   3.550690968
H        0.488403997   4.391153853   1.851049032
H        2.710683311  10.107054737   7.752129419
H        5.877333311  13.469945263   2.350389419
H        0.110826689   5.610945263   3.051340581
H        3.690398243  10.238318863   9.201279908
H        6.857048243  13.338681137   3.799549908
H       -0.868888243   5.479681137   1.602190092
C        1.304590143   8.389987897   8.744536746
C        4.471240143  15.187012103   3.342796746
C        1.516919857   7.328012103   2.058933254
H        1.711622763   7.381785960   8.982553943
H        4.878262763   0.477214040   3.580813943
H        1.109887237   8.336214040   1.820916057
H        1.473049557   8.492989845   7.645215002
H        4.639699557  15.084010155   2.243485002
H        1.348460443   7.225010155   3.158254998
H        0.203799626   8.271465330   8.833986954
H        3.370439626  15.305534670   3.432256954
H        2.617710374   7.446534670   1.969483046
H        1.126145407  14.971240824   9.875016701
H        4.292785407   8.605759176   4.473276701
H        1.695364593   0.746759176   0.928453299
H        7.614774803  13.714070470   0.284112059
H        4.448124803   9.862929530   5.685842059
H       -4.793264803   2.003929530  10.519357941
H        6.111537949  14.607536583   0.133248030
H        2.944897949   8.969463417   5.534988030
H       -3.290027949   1.110463417  10.670221970
N        1.818292839   9.391120724   9.482873180
N        4.984932839  14.185879276   4.081133180
N        1.003217161   6.326879276   1.320596820
O       -1.853219621  10.333519152   9.599311147
O        1.313430379  13.243480848   4.197581147
O        4.674729621   5.384480848   1.204158853
H       -2.243274215   9.541697218   8.583069407
H        0.923365785  14.035302782   3.181339407
H        5.064784215   6.176302782   2.220400593
O       -2.195983503   9.404653597   7.018465998
O        0.970656497  14.172346403   1.616735998
O        5.017493503   6.313346403   3.785004002
C       -1.159175639  11.175474542   8.909312428
C        2.007464361  12.401525458   3.507582428
C        3.980685639   4.542525458   1.894157572
C       -0.628735233  12.111847583   9.688928190
C        2.537904767  11.465152417   4.287198190
C        3.450245233   3.606152417   1.114541810



     Writing output data file 2hc_2_211.save
     charge density from previous step

     total cpu time spent up to now is     3086.0 secs

     per-process dynamical memory:   877.9 Mb

     Self-consistent Calculation

     iteration #  1     ecut=    30.00 Ry     beta=0.70
     Davidson diagonalization with overlap
     ethr =  1.00E-06,  avg # of iterations = 20.0

     total cpu time spent up to now is     3886.7 secs

     total energy              =   -1210.93339851 Ry
     Harris-Foulkes estimate   =   -1270.53016151 Ry
     estimated scf accuracy    <      78.28329366 Ry

     iteration #  2     ecut=    30.00 Ry     beta=0.70
     Davidson diagonalization with overlap
     ethr =  1.00E-02,  avg # of iterations =  5.5

     total cpu time spent up to now is     4203.1 secs

     total energy              =   -1192.32487568 Ry
     Harris-Foulkes estimate   =   -1271.43076142 Ry
     estimated scf accuracy    <     189.41448870 Ry

     iteration #  3     ecut=    30.00 Ry     beta=0.70
     Davidson diagonalization with overlap
     ethr =  1.00E-02,  avg # of iterations =  9.5

     total cpu time spent up to now is     4529.0 secs

     total energy              =   -1233.77804420 Ry
     Harris-Foulkes estimate   =   -1249.39994847 Ry
     estimated scf accuracy    <      45.11420733 Ry

     iteration #  4     ecut=    30.00 Ry     beta=0.70
     Davidson diagonalization with overlap
     ethr =  1.00E-02,  avg # of iterations =  3.5

     total cpu time spent up to now is     4726.4 secs

     total energy              =   -1241.53998265 Ry
     Harris-Foulkes estimate   =   -1243.82081754 Ry
     estimated scf accuracy    <       5.54335175 Ry

     iteration #  5     ecut=    30.00 Ry     beta=0.70
     Davidson diagonalization with overlap
     ethr =  1.28E-03,  avg # of iterations =  4.0

     total cpu time spent up to now is     4904.7 secs

     total energy              =   -1242.31999160 Ry
     Harris-Foulkes estimate   =   -1242.56605843 Ry
     estimated scf accuracy    <       0.64536537 Ry

     iteration #  6     ecut=    30.00 Ry     beta=0.70
     Davidson diagonalization with overlap
     ethr =  1.49E-04,  avg # of iterations =  4.0

     total cpu time spent up to now is     5097.1 secs

     total energy              =   -1242.39428577 Ry
     Harris-Foulkes estimate   =   -1242.45420743 Ry
     estimated scf accuracy    <       0.19661054 Ry

     iteration #  7     ecut=    30.00 Ry     beta=0.70
     Davidson diagonalization with overlap
     ethr =  4.55E-05,  avg # of iterations =  4.0

     total cpu time spent up to now is     5291.8 secs

     total energy              =   -1242.40308927 Ry
     Harris-Foulkes estimate   =   -1242.42720468 Ry
     estimated scf accuracy    <       0.05569803 Ry

     iteration #  8     ecut=    30.00 Ry     beta=0.70
     Davidson diagonalization with overlap
     ethr =  1.29E-05,  avg # of iterations =  4.0

     total cpu time spent up to now is     5508.6 secs

     total energy              =   -1242.41229220 Ry
     Harris-Foulkes estimate   =   -1242.41919451 Ry
     estimated scf accuracy    <       0.01721089 Ry

     iteration #  9     ecut=    30.00 Ry     beta=0.70
     Davidson diagonalization with overlap
     ethr =  3.98E-06,  avg # of iterations =  3.5

     total cpu time spent up to now is     5699.2 secs

     total energy              =   -1242.41511159 Ry
     Harris-Foulkes estimate   =   -1242.41565796 Ry
     estimated scf accuracy    <       0.00128200 Ry

     iteration # 10     ecut=    30.00 Ry     beta=0.70
     Davidson diagonalization with overlap
     ethr =  2.97E-07,  avg # of iterations =  4.0

     total cpu time spent up to now is     5924.3 secs

     total energy              =   -1242.41535236 Ry
     Harris-Foulkes estimate   =   -1242.41545583 Ry
     estimated scf accuracy    <       0.00023766 Ry

     iteration # 11     ecut=    30.00 Ry     beta=0.70
     Davidson diagonalization with overlap
     ethr =  5.50E-08,  avg # of iterations =  4.0

     total cpu time spent up to now is     6132.0 secs

     total energy              =   -1242.41538843 Ry
     Harris-Foulkes estimate   =   -1242.41540156 Ry
     estimated scf accuracy    <       0.00003094 Ry

     iteration # 12     ecut=    30.00 Ry     beta=0.70
     Davidson diagonalization with overlap
     ethr =  7.16E-09,  avg # of iterations =  4.0

     total cpu time spent up to now is     6350.2 secs

     total energy              =   -1242.41539438 Ry
     Harris-Foulkes estimate   =   -1242.41539813 Ry
     estimated scf accuracy    <       0.00000781 Ry

     iteration # 13     ecut=    30.00 Ry     beta=0.70
     Davidson diagonalization with overlap
     ethr =  1.81E-09,  avg # of iterations =  3.5

     total cpu time spent up to now is     6549.9 secs

     total energy              =   -1242.41539602 Ry
     Harris-Foulkes estimate   =   -1242.41539644 Ry
     estimated scf accuracy    <       0.00000093 Ry

     iteration # 14     ecut=    30.00 Ry     beta=0.70
     Davidson diagonalization with overlap
     ethr =  2.15E-10,  avg # of iterations =  3.0

     total cpu time spent up to now is     6755.6 secs

     total energy              =   -1242.41539622 Ry
     Harris-Foulkes estimate   =   -1242.41539630 Ry
     estimated scf accuracy    <       0.00000018 Ry

     iteration # 15     ecut=    30.00 Ry     beta=0.70
     Davidson diagonalization with overlap
     ethr =  4.12E-11,  avg # of iterations =  3.0

     total cpu time spent up to now is     6976.8 secs

     End of self-consistent calculation

          k = 0.0000 0.0000 0.0000 ( 29063 PWs)   bands (ev):

   -20.4405 -20.4398 -20.4378 -20.4375 -19.9314 -19.9308 -19.9297 -19.9294
   -19.4829 -19.4824 -19.4667 -19.4662 -16.8904 -16.8897 -16.8748 -16.8738
   -16.3437 -16.3421 -16.3400 -16.3387 -14.6754 -14.6724 -14.6638 -14.6612
   -14.0202 -14.0143 -14.0028 -14.0011 -13.3729 -13.3617 -13.3493 -13.3403
   -13.2310 -13.2276 -13.2092 -13.2047 -12.5295 -12.5163 -12.5113 -12.4979
   -12.2276 -12.2259 -12.2203 -12.2202 -12.0555 -12.0461 -12.0281 -12.0194
   -11.4770 -11.4663 -11.4444 -11.4354 -10.2038 -10.1782 -10.1712 -10.1311
    -9.3215  -9.3004  -9.2989  -9.2912  -8.9634  -8.9514  -8.9326  -8.9125
    -8.8465  -8.8399  -8.7918  -8.7663  -8.4388  -8.4376  -8.4092  -8.3813
    -7.9280  -7.9243  -7.9062  -7.8652  -7.5939  -7.5457  -7.5364  -7.5238
    -7.2048  -7.1821  -7.1693  -7.1358  -6.6592  -6.6487  -6.6410  -6.6253
    -6.5397  -6.5351  -6.5097  -6.5045  -6.4636  -6.4580  -6.2608  -6.2430
    -6.2097  -6.1924  -6.1455  -6.0791  -5.6855  -5.6828  -5.6511  -5.5919
    -5.5235  -5.5035  -5.4263  -5.3709  -5.2047  -5.1425  -5.0777  -5.0688
    -4.9988  -4.9265  -4.8978  -4.8812  -4.7941  -4.7655  -4.7116  -4.6988
    -4.6841  -4.6223  -4.6042  -4.4294  -4.4115  -4.4051  -4.3681  -4.3403
    -4.3395  -4.2852  -4.2659  -4.2463  -4.1041  -4.0744  -4.0338  -4.0030
    -3.9581  -3.8948  -3.8549  -3.8338  -3.8292  -3.8285  -3.7861  -3.7743
    -3.7717  -3.7303  -3.6759  -3.6348  -3.6340  -3.6115  -3.4977  -3.4033
    -3.3843  -3.3420  -3.3390  -3.3370  -3.1805  -3.1739  -3.1320  -3.1239
    -3.0815  -2.9835  -2.9763  -2.9410  -2.8755  -2.8718  -2.8705  -2.8548
    -2.7127  -2.5589  -2.5154  -2.4864  -2.4841  -2.4770  -2.4613  -2.4334
    -2.3426  -2.2984  -2.2905  -2.2827  -1.7943  -1.7408  -1.7097  -1.6266
    -1.3495  -1.3433  -1.1783  -1.1301  -1.0527  -1.0328  -1.0286  -1.0258
    -0.9415  -0.9268  -0.8590  -0.8506  -0.7796  -0.7409  -0.6575  -0.6452
    -0.5299  -0.4827  -0.4213  -0.3908  -0.3871  -0.3827  -0.3151  -0.2504
     0.3956   0.4150   0.4488   0.4632   0.9250   0.9259   0.9337   0.9351

          k =-0.5000 0.0000-0.2931 ( 29122 PWs)   bands (ev):

   -20.4401 -20.4399 -20.4380 -20.4375 -19.9312 -19.9309 -19.9301 -19.9295
   -19.4829 -19.4824 -19.4667 -19.4662 -16.8903 -16.8897 -16.8746 -16.8737
   -16.3438 -16.3420 -16.3405 -16.3387 -14.6662 -14.6655 -14.6648 -14.6642
   -14.0395 -14.0260 -14.0099 -14.0040 -13.3603 -13.3533 -13.3452 -13.3255
   -13.2343 -13.2294 -13.2086 -13.2069 -12.5315 -12.5165 -12.5137 -12.4962
   -12.2318 -12.2275 -12.2271 -12.2187 -12.0507 -12.0331 -12.0049 -11.9990
   -11.4881 -11.4840 -11.4602 -11.4551 -10.2167 -10.1888 -10.1630 -10.1227
    -9.3214  -9.2934  -9.2719  -9.2624  -8.9676  -8.9466  -8.9391  -8.9309
    -8.8272  -8.8217  -8.8182  -8.8142  -8.4827  -8.3999  -8.3841  -8.3838
    -7.9292  -7.9245  -7.9194  -7.8672  -7.5813  -7.5362  -7.5349  -7.5204
    -7.1856  -7.1763  -7.1623  -7.1505  -6.6888  -6.6657  -6.6293  -6.6072
    -6.5540  -6.5255  -6.5195  -6.4693  -6.4676  -6.4627  -6.2578  -6.2425
    -6.2362  -6.1897  -6.1284  -6.1276  -5.6356  -5.6298  -5.6265  -5.5975
    -5.5556  -5.4970  -5.4486  -5.4132  -5.1393  -5.0843  -5.0638  -5.0619
    -4.9920  -4.9806  -4.8878  -4.8824  -4.8152  -4.7395  -4.7048  -4.6960
    -4.6656  -4.6313  -4.5938  -4.4769  -4.4659  -4.4380  -4.4190  -4.3664
    -4.3571  -4.3110  -4.3054  -4.2316  -4.0801  -4.0678  -4.0518  -4.0460
    -3.9678  -3.8999  -3.8778  -3.8413  -3.8274  -3.7905  -3.7856  -3.7683
    -3.7204  -3.6893  -3.6843  -3.6303  -3.5967  -3.5899  -3.4741  -3.4315
    -3.4170  -3.4097  -3.3539  -3.3538  -3.1837  -3.1421  -3.1362  -3.0710
    -3.0428  -3.0261  -2.9823  -2.9745  -2.9058  -2.8914  -2.8621  -2.8456
    -2.6953  -2.5918  -2.5506  -2.4299  -2.4252  -2.4028  -2.3981  -2.3729
    -2.3603  -2.2985  -2.2899  -2.2767  -1.8196  -1.7648  -1.6818  -1.6031
    -1.3829  -1.3403  -1.1919  -1.1377  -1.0248  -1.0145  -1.0120  -1.0099
    -0.9882  -0.9667  -0.9036  -0.8889  -0.7403  -0.6999  -0.6796  -0.6721
    -0.5287  -0.4919  -0.4724  -0.4268  -0.3833  -0.3816  -0.2626  -0.2625
     0.5341   0.5568   0.5598   0.5709   0.7418   0.7571   0.8055   0.8180

     highest occupied level (ev):     0.9351

!    total energy              =   -1242.41539625 Ry
     Harris-Foulkes estimate   =   -1242.41539626 Ry
     estimated scf accuracy    <       0.00000001 Ry

     The total energy is the sum of the following terms:

     one-electron contribution =   -1224.96807967 Ry
     hartree contribution      =     753.16460045 Ry
     xc contribution           =    -385.55296484 Ry
     ewald contribution        =    -384.40187387 Ry
     Dispersion Correction     =      -0.65707833 Ry

     convergence has been achieved in  15 iterations

     Forces acting on atoms (cartesian axes, Ry/au):

     atom    1 type  1   force =    -0.00239934   -0.00329726    0.04005414
     atom    2 type  1   force =     0.02714646    0.01022858   -0.30425218
     atom    3 type  2   force =    -0.01226315    0.00526722    0.09519965
     atom    4 type  1   force =     0.02667235   -0.04084678    0.00477187
     atom    5 type  1   force =    -0.23923680    0.35769132   -0.00318481
     atom    6 type  2   force =     0.05743775   -0.07871225   -0.02083858
     atom    7 type  1   force =     0.00169565   -0.08635853    0.40874215
     atom    8 type  2   force =     0.01808702   -0.00907654   -0.10615065
     atom    9 type  1   force =     0.09686997   -0.14037118   -0.00894242
     atom   10 type  1   force =     0.00694049    0.00634820   -0.07294852
     atom   11 type  1   force =    -0.19623006    0.26250031    0.05605287
     atom   12 type  2   force =     0.04135420   -0.04844383   -0.05148904
     atom   13 type  1   force =     0.19086187   -0.25726622   -0.06619322
     atom   14 type  2   force =    -0.03932848    0.04656913    0.05514982
     atom   15 type  1   force =    -0.02588903    0.03255924    0.01245421
     atom   16 type  1   force =    -0.09191563    0.24065298   -0.35600140
     atom   17 type  2   force =     0.03243706   -0.06976727    0.05974697
     atom   18 type  1   force =    -0.18582628    0.20502407    0.37104270
     atom   19 type  2   force =     0.04915448   -0.06738280   -0.05587497
     atom   20 type  1   force =    -0.00448525    0.00093892    0.03131054
     atom   21 type  1   force =     0.09249714   -0.23170259    0.36894896
     atom   22 type  2   force =    -0.03738721    0.07128923   -0.06030421
     atom   23 type  1   force =     0.18833976   -0.20485116   -0.35768825
     atom   24 type  2   force =    -0.05263124    0.06623545    0.04915934
     atom   25 type  1   force =    -0.12692011    0.14168500    0.08500103
     atom   26 type  2   force =     0.00403526   -0.00617739   -0.00395467
     atom   27 type  2   force =     0.01079048   -0.00635366   -0.02406891
     atom   28 type  2   force =     0.00655072   -0.00401222   -0.00396099
     atom   29 type  1   force =     0.08739563   -0.15949462    0.10492747
     atom   30 type  2   force =    -0.00107167    0.00519575   -0.00436793
     atom   31 type  2   force =    -0.00178526    0.00975476   -0.02699752
     atom   32 type  2   force =    -0.00512606    0.00471988   -0.00624520
     atom   33 type  1   force =    -0.06513111    0.12981948   -0.12307170
     atom   34 type  2   force =     0.00904063   -0.01655479    0.00472492
     atom   35 type  2   force =     0.01272436   -0.00385905    0.01370437
     atom   36 type  2   force =    -0.00412036   -0.01598461    0.01222386
     atom   37 type  4   force =     0.02036986    0.01353407   -0.09179087
     atom   38 type  3   force =     0.11159112   -0.19343388    0.10757554
     atom   39 type  2   force =    -0.03638552    0.07224343   -0.04372579
     atom   40 type  3   force =     0.03072086   -0.03558138   -0.09232879
     atom   41 type  2   force =     0.01226315    0.00526722   -0.09519965
     atom   42 type  2   force =     0.01226315   -0.00526722   -0.09519965
     atom   43 type  2   force =    -0.01226315   -0.00526722    0.09519965
     atom   44 type  1   force =    -0.02667235   -0.04084678   -0.00477187
     atom   45 type  1   force =    -0.02667235    0.04084678   -0.00477187
     atom   46 type  1   force =     0.02667235    0.04084678    0.00477187
     atom   47 type  1   force =     0.23923680    0.35769132    0.00318481
     atom   48 type  1   force =     0.23923680   -0.35769132    0.00318481
     atom   49 type  1   force =    -0.23923680   -0.35769132   -0.00318481
     atom   50 type  2   force =    -0.05743775   -0.07871225    0.02083858
     atom   51 type  2   force =    -0.05743775    0.07871225    0.02083858
     atom   52 type  2   force =     0.05743775    0.07871225   -0.02083858
     atom   53 type  1   force =    -0.00169565   -0.08635853   -0.40874215
     atom   54 type  1   force =    -0.00169565    0.08635853   -0.40874215
     atom   55 type  1   force =     0.00169565    0.08635853    0.40874215
     atom   56 type  2   force =    -0.01808702   -0.00907654    0.10615065
     atom   57 type  2   force =    -0.01808702    0.00907654    0.10615065
     atom   58 type  2   force =     0.01808702    0.00907654   -0.10615065
     atom   59 type  1   force =    -0.09686997   -0.14037118    0.00894242
     atom   60 type  1   force =    -0.09686997    0.14037118    0.00894242
     atom   61 type  1   force =     0.09686997    0.14037118   -0.00894242
     atom   62 type  1   force =    -0.00694049    0.00634820    0.07294852
     atom   63 type  1   force =    -0.00694049   -0.00634820    0.07294852
     atom   64 type  1   force =     0.00694049   -0.00634820   -0.07294852
     atom   65 type  1   force =     0.19623006    0.26250031   -0.05605287
     atom   66 type  1   force =     0.19623006   -0.26250031   -0.05605287
     atom   67 type  1   force =    -0.19623006   -0.26250031    0.05605287
     atom   68 type  2   force =    -0.04135420   -0.04844383    0.05148904
     atom   69 type  2   force =    -0.04135420    0.04844383    0.05148904
     atom   70 type  2   force =     0.04135420    0.04844383   -0.05148904
     atom   71 type  1   force =    -0.19086187   -0.25726622    0.06619322
     atom   72 type  1   force =    -0.19086187    0.25726622    0.06619322
     atom   73 type  1   force =     0.19086187    0.25726622   -0.06619322
     atom   74 type  2   force =     0.03932848    0.04656913   -0.05514982
     atom   75 type  2   force =     0.03932848   -0.04656913   -0.05514982
     atom   76 type  2   force =    -0.03932848   -0.04656913    0.05514982
     atom   77 type  1   force =     0.02588903    0.03255924   -0.01245421
     atom   78 type  1   force =     0.02588903   -0.03255924   -0.01245421
     atom   79 type  1   force =    -0.02588903   -0.03255924    0.01245421
     atom   80 type  1   force =     0.09191563    0.24065298    0.35600140
     atom   81 type  1   force =     0.09191563   -0.24065298    0.35600140
     atom   82 type  1   force =    -0.09191563   -0.24065298   -0.35600140
     atom   83 type  1   force =     0.06513111    0.12981948    0.12307170
     atom   84 type  1   force =     0.06513111   -0.12981948    0.12307170
     atom   85 type  1   force =    -0.06513111   -0.12981948   -0.12307170
     atom   86 type  2   force =    -0.03243706   -0.06976727   -0.05974697
     atom   87 type  2   force =    -0.03243706    0.06976727   -0.05974697
     atom   88 type  2   force =     0.03243706    0.06976727    0.05974697
     atom   89 type  1   force =     0.18582628    0.20502407   -0.37104270
     atom   90 type  1   force =     0.18582628   -0.20502407   -0.37104270
     atom   91 type  1   force =    -0.18582628   -0.20502407    0.37104270
     atom   92 type  2   force =    -0.04915448   -0.06738280    0.05587497
     atom   93 type  2   force =    -0.04915448    0.06738280    0.05587497
     atom   94 type  2   force =     0.04915448    0.06738280   -0.05587497
     atom   95 type  1   force =     0.00448525    0.00093892   -0.03131054
     atom   96 type  1   force =     0.00448525   -0.00093892   -0.03131054
     atom   97 type  1   force =    -0.00448525   -0.00093892    0.03131054
     atom   98 type  1   force =    -0.09249714   -0.23170259   -0.36894896
     atom   99 type  1   force =    -0.09249714    0.23170259   -0.36894896
     atom  100 type  1   force =     0.09249714    0.23170259    0.36894896
     atom  101 type  2   force =     0.03738721    0.07128923    0.06030421
     atom  102 type  2   force =     0.03738721   -0.07128923    0.06030421
     atom  103 type  2   force =    -0.03738721   -0.07128923   -0.06030421
     atom  104 type  1   force =    -0.18833976   -0.20485116    0.35768825
     atom  105 type  1   force =    -0.18833976    0.20485116    0.35768825
     atom  106 type  1   force =     0.18833976    0.20485116   -0.35768825
     atom  107 type  2   force =     0.05263124    0.06623545   -0.04915934
     atom  108 type  2   force =     0.05263124   -0.06623545   -0.04915934
     atom  109 type  2   force =    -0.05263124   -0.06623545    0.04915934
     atom  110 type  1   force =     0.12692011    0.14168500   -0.08500103
     atom  111 type  1   force =     0.12692011   -0.14168500   -0.08500103
     atom  112 type  1   force =    -0.12692011   -0.14168500    0.08500103
     atom  113 type  2   force =    -0.00403526   -0.00617739    0.00395467
     atom  114 type  2   force =    -0.00403526    0.00617739    0.00395467
     atom  115 type  2   force =     0.00403526    0.00617739   -0.00395467
     atom  116 type  2   force =    -0.01079048   -0.00635366    0.02406891
     atom  117 type  2   force =    -0.01079048    0.00635366    0.02406891
     atom  118 type  2   force =     0.01079048    0.00635366   -0.02406891
     atom  119 type  2   force =    -0.00655072   -0.00401222    0.00396099
     atom  120 type  2   force =    -0.00655072    0.00401222    0.00396099
     atom  121 type  2   force =     0.00655072    0.00401222   -0.00396099
     atom  122 type  1   force =    -0.08739563   -0.15949462   -0.10492747
     atom  123 type  1   force =    -0.08739563    0.15949462   -0.10492747
     atom  124 type  1   force =     0.08739563    0.15949462    0.10492747
     atom  125 type  2   force =     0.00107167    0.00519575    0.00436793
     atom  126 type  2   force =     0.00107167   -0.00519575    0.00436793
     atom  127 type  2   force =    -0.00107167   -0.00519575   -0.00436793
     atom  128 type  2   force =     0.00178526    0.00975476    0.02699752
     atom  129 type  2   force =     0.00178526   -0.00975476    0.02699752
     atom  130 type  2   force =    -0.00178526   -0.00975476   -0.02699752
     atom  131 type  2   force =     0.00512606    0.00471988    0.00624520
     atom  132 type  2   force =     0.00512606   -0.00471988    0.00624520
     atom  133 type  2   force =    -0.00512606   -0.00471988   -0.00624520
     atom  134 type  2   force =    -0.00904063   -0.01655479   -0.00472492
     atom  135 type  2   force =    -0.00904063    0.01655479   -0.00472492
     atom  136 type  2   force =     0.00904063    0.01655479    0.00472492
     atom  137 type  2   force =    -0.01272436   -0.00385905   -0.01370437
     atom  138 type  2   force =    -0.01272436    0.00385905   -0.01370437
     atom  139 type  2   force =     0.01272436    0.00385905    0.01370437
     atom  140 type  2   force =     0.00412036   -0.01598461   -0.01222386
     atom  141 type  2   force =     0.00412036    0.01598461   -0.01222386
     atom  142 type  2   force =    -0.00412036    0.01598461    0.01222386
     atom  143 type  4   force =    -0.02036986    0.01353407    0.09179087
     atom  144 type  4   force =    -0.02036986   -0.01353407    0.09179087
     atom  145 type  4   force =     0.02036986   -0.01353407   -0.09179087
     atom  146 type  3   force =    -0.11159112   -0.19343388   -0.10757554
     atom  147 type  3   force =    -0.11159112    0.19343388   -0.10757554
     atom  148 type  3   force =     0.11159112    0.19343388    0.10757554
     atom  149 type  2   force =     0.03638552    0.07224343    0.04372579
     atom  150 type  2   force =     0.03638552   -0.07224343    0.04372579
     atom  151 type  2   force =    -0.03638552   -0.07224343   -0.04372579
     atom  152 type  3   force =    -0.03072086   -0.03558138    0.09232879
     atom  153 type  3   force =    -0.03072086    0.03558138    0.09232879
     atom  154 type  3   force =     0.03072086    0.03558138   -0.09232879
     atom  155 type  1   force =     0.00239934   -0.00329726   -0.04005414
     atom  156 type  1   force =     0.00239934    0.00329726   -0.04005414
     atom  157 type  1   force =    -0.00239934    0.00329726    0.04005414
     atom  158 type  1   force =    -0.02714646    0.01022858    0.30425218
     atom  159 type  1   force =    -0.02714646   -0.01022858    0.30425218
     atom  160 type  1   force =     0.02714646   -0.01022858   -0.30425218

     Total force =     2.700532     Total SCF correction =     0.000250

     number of scf cycles    =   2
     number of bfgs steps    =   1

     energy   old            =   -1241.7729335598 Ry
     energy   new            =   -1242.4153962549 Ry

     CASE: energy  _new < energy  _old

     new trust radius        =       0.2596475480 bohr
     new conv_thr            =       0.0000001000 Ry


ATOMIC_POSITIONS (angstrom)
C        0.813931226   3.314284406   7.310220650
C        0.287679669   4.259805645   6.437272565
H        0.518441281   4.103380824   5.338377688
C       -0.442594167   5.304191048   6.802007264
C       -0.723334845   5.441710230   8.102279272
H       -1.342293623   6.264254261   8.497292532
C       -0.205716375   4.474742975   9.045794793
H       -0.473436677   4.671072253  10.106719212
C        0.569589150   3.396899859   8.669831937
C        1.106850636   2.479236811   9.605426263
C        7.190247011   2.580695166   0.192943479
H        6.542193265   3.402118217   0.587673677
C        7.674483724   1.748452865   1.191432990
H        8.309997349   0.926842361   0.725451739
C        7.527908387   1.739857717   2.553545347
C        6.860143244   2.664794760   3.222983096
H        6.404027447   3.533214495   2.722474769
C       -2.483289643   2.600286948   4.676452397
H        6.096566779   3.427928150   5.108639074
C       -1.976841532   1.594060360   5.412024848
C       -1.264309870   0.666650488   4.742879075
H       -0.778896133  15.527908960   5.231884882
C       -1.086569637   0.743472634   3.281621746
H       -0.489755038  -0.067704305   2.840610726
C       -3.008588415   2.438461656   7.370669169
H       -2.668377152   3.490028988   7.248091513
H       -3.052253217   2.240622036   8.469092179
H       -4.057636705   2.376058432   6.993102980
C       -1.627069248   0.491167623   7.483901313
H       -2.067760581  15.219550047   7.214224581
H       -1.823692401   0.641778881   8.574952283
H       -0.525092710   0.412871389   7.365625897
C       -0.931193349   6.282981431   5.859667217
H       -1.480321599   7.124997420   6.343802210
H       -1.638364633   5.842481804   5.105553625
H       -0.105081523   6.752916264   5.259664349
N       -2.155340310   1.537060960   6.687527960
O        1.530809706   2.440227462   6.598388350
H        1.902525548   1.673590674   7.650742841
O        1.863652895   1.529913534   9.152707735
H       -0.863581281  11.962380824  10.866822312
H        2.303068719  11.614629176   5.465092312
H        3.685091281   3.755629176  -0.063352312
C        0.097464167  13.163191048   9.403202736
C        3.264104167  10.413808952   4.001462736
C        2.724045833   2.554808952   1.400267264
C        0.378204845  13.300710230   8.102930728
C        3.544844845  10.276289770   2.701190728
C        2.443305155   2.417289770   2.700539272
H        0.997153623  14.123254261   7.707907468
H        4.163803623   9.453745739   2.306177468
H        1.824356377   1.594745739   3.095562532
C       -0.139413625  12.333742975   7.159415207
C        3.027226375  11.243257025   1.757675207
C        2.960923625   3.384257025   3.644054793
H        0.128296677  12.530072253   6.098480788
H        3.294946677  11.046927747   0.696750788
H        2.693213323   3.187927747   4.704989212
C       -0.914729150  11.255899859   7.535378063
C        2.251920850  12.321100141   2.133638063
C        3.736239150   4.462100141   3.268091937
C       -1.451980636  10.338236811   6.599773737
C        1.714659364  13.238763189   1.198043737
C        4.273490636   5.379763189   4.203696263
C       -1.202097011  10.439695166   5.208796521
C       -4.368737011  13.137304834  10.610526521
C        4.023607011   5.278304834   5.594673479
H       -0.554033265  11.261118217   4.814066323
H       -3.720683265  12.315881783  10.215796323
H        3.375543265   4.456881783   5.989403677
C       -1.686323724   9.607452865   4.210297010
C       -4.852973724  13.969547135   9.612037010
C        4.507833724   6.110547135   6.593172990
H       -2.321837349   8.785842361   4.676288261
H       -5.488487349  14.791157639  10.078018261
H        5.143347349   6.932157639   6.127181739
C       -1.539748387   9.598857717   2.848184653
C       -4.706398387  13.978142283   8.249924653
C        4.361258387   6.119142283   7.955285347
C       -0.871993244  10.523794760   2.178756904
C       -4.038633244  13.053205240   7.580486904
C        3.693503244   5.194205240   8.624713096
C        0.586053349  14.141981431  10.345542783
C        3.752703349   9.435018569   4.943802783
C        2.235456651   1.576018569   0.457927217
H       -0.415877447  11.392214495   2.679265231
H       -3.582517447  12.184785505   8.080995231
H        3.237387447   4.325785505   8.124204769
C        8.471439643  10.459286948   0.725277603
C        5.304799643  13.117713052   6.127017603
C       -5.649929643   5.258713052  10.078192397
H       -0.108406779  11.286928150   0.293090926
H       -3.275056779  12.290071850   5.694830926
H        2.929916779   4.431071850  10.510379074
C        7.965001532   9.453060360  -0.010294848
C        4.798351532  14.123939640   5.391445152
C       -5.143491532   6.264939640  10.813764848
C        7.252459870   8.525650488   0.658860925
C        4.085819870  15.051349512   6.060590925
C       -4.430949870   7.192349512  10.144609075
H        6.767046133   7.668908960   0.169855118
H        3.600406133   0.190091040   5.571585118
H       -3.945536133   8.049091040  10.633614882
C        7.074729637   8.602472634   2.120108254
C        3.908079637  14.974527366   7.521848254
C       -4.253219637   7.115527366   8.683361746
H        6.477905038   7.791295695   2.561119274
H        3.311265038  15.785704305   7.962859274
H       -3.656395038   7.926704305   8.242350726
C        2.663448415  10.297461656   8.834540831
C        5.830098415  13.279538344   3.432800831
C        0.158061585   5.420538344   1.968929169
H        2.323237152  11.349028988   8.957108487
H        5.489887152  12.227971012   3.555378487
H        0.498272848   4.368971012   1.846361513
H        2.707113217  10.099622036   7.736117821
H        5.873763217  13.477377964   2.334377821
H        0.114396783   5.618377964   3.067352179
H        3.712496705  10.235058432   9.212097020
H        6.879146705  13.341941568   3.810367020
H       -0.890986705   5.482941568   1.591372980
C        1.281929248   8.350167623   8.721308687
C        4.448579248  15.226832377   3.319568687
C        1.539580752   7.367832377   2.082161313
H        1.722630581   7.360550047   8.990985419
H        4.889270581   0.498449953   3.589245419
H        1.098879419   8.357449953   1.812484581
H        1.478552401   8.500778881   7.630247717
H        4.645202401  15.076221119   2.228517717
H        1.342957599   7.217221119   3.173222283
H        0.179962710   8.271871389   8.839574103
H        3.346602710  15.305128611   3.437844103
H        2.641547290   7.446128611   1.963895897
H        1.135191599  14.983997420   9.861407790
H        4.301831599   8.593002580   4.459667790
H        1.686318401   0.734002580   0.942062210
H        7.626524633  13.701481804   0.296186375
H        4.459874633   9.875518196   5.697916375
H       -4.805014633   2.016518196  10.507283625
H        6.093231523  14.611916264   0.142065651
H        2.926591523   8.965083736   5.543805651
H       -3.271721523   1.106083736  10.661404349
N        1.810210310   9.396060960   9.517682040
N        4.976850310  14.180939040   4.115942040
N        1.011299690   6.321939040   1.285787960
O       -1.875949706  10.299227462   9.606811650
O        1.290700294  13.277772538   4.205081650
O        4.697459706   5.418772538   1.196658350
H       -2.247655548   9.532590674   8.554457159
H        0.918984452  14.044409326   3.152727159
H        5.069165548   6.185409326   2.249012841
O       -2.208782895   9.388913534   7.052492265
O        0.957857105  14.188086466   1.650762265
O        5.030292895   6.329086466   3.750977735
C       -1.159061226  11.173284406   8.894979350
C        2.007578774  12.403715594   3.493249350
C        3.980571226   4.544715594   1.908490650
C       -0.632809669  12.118805645   9.767927435
C        2.533830331  11.458194355   4.366197435
C        3.454319669   3.599194355   1.035542565



     Writing output data file 2hc_2_211.save
     charge density from previous step

     total cpu time spent up to now is     7043.6 secs

     per-process dynamical memory:   877.9 Mb

     Self-consistent Calculation

     iteration #  1     ecut=    30.00 Ry     beta=0.70
     Davidson diagonalization with overlap
     ethr =  1.00E-06,  avg # of iterations = 13.5

     total cpu time spent up to now is     7647.8 secs

     total energy              =   -1230.85852070 Ry
     Harris-Foulkes estimate   =   -1254.65153751 Ry
[...]
     atom   39 type  2   force =     0.00009667    0.00061594    0.00033282
     atom   40 type  3   force =    -0.00003474   -0.00008565   -0.00073158
     atom   41 type  2   force =    -0.00042385    0.00035700    0.00035724
     atom   42 type  2   force =    -0.00042385   -0.00035700    0.00035724
     atom   43 type  2   force =     0.00042385   -0.00035700   -0.00035724
     atom   44 type  1   force =    -0.00023763   -0.00037508   -0.00050326
     atom   45 type  1   force =    -0.00023763    0.00037508   -0.00050326
     atom   46 type  1   force =     0.00023763    0.00037508    0.00050326
     atom   47 type  1   force =    -0.00040999   -0.00042614   -0.00091418
     atom   48 type  1   force =    -0.00040999    0.00042614   -0.00091418
     atom   49 type  1   force =     0.00040999    0.00042614    0.00091418
     atom   50 type  2   force =    -0.00023615    0.00064142    0.00041011
     atom   51 type  2   force =    -0.00023615   -0.00064142    0.00041011
     atom   52 type  2   force =     0.00023615   -0.00064142   -0.00041011
     atom   53 type  1   force =    -0.00031266   -0.00022178    0.00021175
     atom   54 type  1   force =    -0.00031266    0.00022178    0.00021175
     atom   55 type  1   force =     0.00031266    0.00022178   -0.00021175
     atom   56 type  2   force =     0.00007805    0.00037441    0.00037163
     atom   57 type  2   force =     0.00007805   -0.00037441    0.00037163
     atom   58 type  2   force =    -0.00007805   -0.00037441   -0.00037163
     atom   59 type  1   force =    -0.00042129   -0.00038814    0.00002276
     atom   60 type  1   force =    -0.00042129    0.00038814    0.00002276
     atom   61 type  1   force =     0.00042129    0.00038814   -0.00002276
     atom   62 type  1   force =    -0.00025324   -0.00028228    0.00053027
     atom   63 type  1   force =    -0.00025324    0.00028228    0.00053027
     atom   64 type  1   force =     0.00025324    0.00028228   -0.00053027
     atom   65 type  1   force =     0.00019868    0.00021384    0.00038590
     atom   66 type  1   force =     0.00019868   -0.00021384    0.00038590
     atom   67 type  1   force =    -0.00019868   -0.00021384   -0.00038590
     atom   68 type  2   force =     0.00024188    0.00050345   -0.00007896
     atom   69 type  2   force =     0.00024188   -0.00050345   -0.00007896
     atom   70 type  2   force =    -0.00024188   -0.00050345    0.00007896
     atom   71 type  1   force =     0.00001473   -0.00017531   -0.00062015
     atom   72 type  1   force =     0.00001473    0.00017531   -0.00062015
     atom   73 type  1   force =    -0.00001473    0.00017531    0.00062015
     atom   74 type  2   force =    -0.00003582   -0.00065801   -0.00038399
     atom   75 type  2   force =    -0.00003582    0.00065801   -0.00038399
     atom   76 type  2   force =     0.00003582    0.00065801    0.00038399
     atom   77 type  1   force =    -0.00003399   -0.00005095   -0.00006992
     atom   78 type  1   force =    -0.00003399    0.00005095   -0.00006992
     atom   79 type  1   force =     0.00003399    0.00005095    0.00006992
     atom   80 type  1   force =     0.00055170    0.00099478    0.00031071
     atom   81 type  1   force =     0.00055170   -0.00099478    0.00031071
     atom   82 type  1   force =    -0.00055170   -0.00099478   -0.00031071
     atom   83 type  1   force =    -0.00020926   -0.00053749   -0.00004848
     atom   84 type  1   force =    -0.00020926    0.00053749   -0.00004848
     atom   85 type  1   force =     0.00020926    0.00053749    0.00004848
     atom   86 type  2   force =     0.00064774    0.00081830   -0.00027908
     atom   87 type  2   force =     0.00064774   -0.00081830   -0.00027908
     atom   88 type  2   force =    -0.00064774   -0.00081830    0.00027908
     atom   89 type  1   force =     0.00023919    0.00022261   -0.00061477
     atom   90 type  1   force =     0.00023919   -0.00022261   -0.00061477
     atom   91 type  1   force =    -0.00023919   -0.00022261    0.00061477
     atom   92 type  2   force =    -0.00028566   -0.00029180   -0.00007288
     atom   93 type  2   force =    -0.00028566    0.00029180   -0.00007288
     atom   94 type  2   force =     0.00028566    0.00029180    0.00007288
     atom   95 type  1   force =     0.00000672   -0.00006876    0.00016446
     atom   96 type  1   force =     0.00000672    0.00006876    0.00016446
     atom   97 type  1   force =    -0.00000672    0.00006876   -0.00016446
     atom   98 type  1   force =     0.00015158   -0.00008584   -0.00002409
     atom   99 type  1   force =     0.00015158    0.00008584   -0.00002409
     atom  100 type  1   force =    -0.00015158    0.00008584    0.00002409
     atom  101 type  2   force =     0.00041208    0.00024810    0.00011693
     atom  102 type  2   force =     0.00041208   -0.00024810    0.00011693
     atom  103 type  2   force =    -0.00041208   -0.00024810   -0.00011693
     atom  104 type  1   force =     0.00010614   -0.00013173   -0.00017270
     atom  105 type  1   force =     0.00010614    0.00013173   -0.00017270
     atom  106 type  1   force =    -0.00010614    0.00013173    0.00017270
     atom  107 type  2   force =    -0.00002891   -0.00062450   -0.00008182
     atom  108 type  2   force =    -0.00002891    0.00062450   -0.00008182
     atom  109 type  2   force =     0.00002891    0.00062450    0.00008182
     atom  110 type  1   force =    -0.00005083    0.00005927    0.00037111
     atom  111 type  1   force =    -0.00005083   -0.00005927    0.00037111
     atom  112 type  1   force =     0.00005083   -0.00005927   -0.00037111
     atom  113 type  2   force =    -0.00007507    0.00001420   -0.00013784
     atom  114 type  2   force =    -0.00007507   -0.00001420   -0.00013784
     atom  115 type  2   force =     0.00007507   -0.00001420    0.00013784
     atom  116 type  2   force =    -0.00020049   -0.00035190    0.00017914
     atom  117 type  2   force =    -0.00020049    0.00035190    0.00017914
     atom  118 type  2   force =     0.00020049    0.00035190   -0.00017914
     atom  119 type  2   force =     0.00005087    0.00027247    0.00010904
     atom  120 type  2   force =     0.00005087   -0.00027247    0.00010904
     atom  121 type  2   force =    -0.00005087   -0.00027247   -0.00010904
     atom  122 type  1   force =    -0.00005235   -0.00045922    0.00029544
     atom  123 type  1   force =    -0.00005235    0.00045922    0.00029544
     atom  124 type  1   force =     0.00005235    0.00045922   -0.00029544
     atom  125 type  2   force =     0.00019603   -0.00025609    0.00032196
     atom  126 type  2   force =     0.00019603    0.00025609    0.00032196
     atom  127 type  2   force =    -0.00019603    0.00025609   -0.00032196
     atom  128 type  2   force =     0.00061493    0.00048128    0.00002824
     atom  129 type  2   force =     0.00061493   -0.00048128    0.00002824
     atom  130 type  2   force =    -0.00061493   -0.00048128   -0.00002824
     atom  131 type  2   force =     0.00017301   -0.00012270    0.00017669
     atom  132 type  2   force =     0.00017301    0.00012270    0.00017669
     atom  133 type  2   force =    -0.00017301    0.00012270   -0.00017669
     atom  134 type  2   force =    -0.00011177    0.00015233    0.00060218
     atom  135 type  2   force =    -0.00011177   -0.00015233    0.00060218
     atom  136 type  2   force =     0.00011177   -0.00015233   -0.00060218
     atom  137 type  2   force =     0.00012400    0.00026603   -0.00002585
     atom  138 type  2   force =     0.00012400   -0.00026603   -0.00002585
     atom  139 type  2   force =    -0.00012400   -0.00026603    0.00002585
     atom  140 type  2   force =     0.00052233   -0.00012050    0.00055683
     atom  141 type  2   force =     0.00052233    0.00012050    0.00055683
     atom  142 type  2   force =    -0.00052233    0.00012050   -0.00055683
     atom  143 type  4   force =     0.00010204   -0.00002306   -0.00008858
     atom  144 type  4   force =     0.00010204    0.00002306   -0.00008858
     atom  145 type  4   force =    -0.00010204    0.00002306    0.00008858
     atom  146 type  3   force =     0.00034711    0.00041974    0.00010616
     atom  147 type  3   force =     0.00034711   -0.00041974    0.00010616
     atom  148 type  3   force =    -0.00034711   -0.00041974   -0.00010616
     atom  149 type  2   force =    -0.00009667    0.00061594   -0.00033282
     atom  150 type  2   force =    -0.00009667   -0.00061594   -0.00033282
     atom  151 type  2   force =     0.00009667   -0.00061594    0.00033282
     atom  152 type  3   force =     0.00003474   -0.00008565    0.00073158
     atom  153 type  3   force =     0.00003474    0.00008565    0.00073158
     atom  154 type  3   force =    -0.00003474    0.00008565   -0.00073158
     atom  155 type  1   force =    -0.00018962   -0.00009807    0.00086572
     atom  156 type  1   force =    -0.00018962    0.00009807    0.00086572
     atom  157 type  1   force =     0.00018962    0.00009807   -0.00086572
     atom  158 type  1   force =     0.00007675    0.00001737    0.00020205
     atom  159 type  1   force =     0.00007675   -0.00001737    0.00020205
     atom  160 type  1   force =    -0.00007675   -0.00001737   -0.00020205

     Total force =     0.007681     Total SCF correction =     0.000028

     bfgs converged in  34 scf cycles and  33 bfgs steps
     (criteria: energy <  1.0E-04 Ry, force <  1.0E-03 Ry/Bohr)

     End of BFGS Geometry Optimization

     Final energy   =   -1244.7867831866 Ry
Begin final coordinates

ATOMIC_POSITIONS (angstrom)
C        0.759022312   3.289001344   7.271905213
C        0.264677608   4.216808502   6.349533022
H        0.490837868   4.060359023   5.294479362
C       -0.494210701   5.310209768   6.760801614
C       -0.786749222   5.452710513   8.130759977
H       -1.402830963   6.286726343   8.466442400
C       -0.301920565   4.543274143   9.055176568
H       -0.539956421   4.705281226  10.105547185
C        0.489875801   3.443809370   8.665745301
C        1.070181680   2.484537796   9.616809089
C        7.161682776   2.611694448   0.227692896
H        6.512880274   3.412661942   0.573583877
C        7.704094360   1.737730139   1.128304607
H        8.333723584   0.940844339   0.723111907
C        7.528664041   1.737363313   2.545496403
C        6.792023980   2.722006796   3.244053202
H        6.346841474   3.551461969   2.696143942
C       -2.553022476   2.656010159   4.605142454
H        6.018405235   3.433619681   5.094252854
C       -2.001847088   1.590885934   5.376046272
C       -1.243876268   0.606209224   4.682443599
H       -0.795178740  15.494323369   5.224427810
C       -1.068745730   0.690265486   3.317224230
H       -0.493637278  -0.077859861   2.799324639
C       -3.041454686   2.497848117   7.389959702
H       -2.646321669   3.518668133   7.273135612
H       -3.082671695   2.263869927   8.457700276
H       -4.068578531   2.471327267   6.990614188
C       -1.613676979   0.433208956   7.484743333
H       -2.047212853  15.179076487   7.199416062
H       -1.803815715   0.597395132   8.550013187
H       -0.524484221   0.390117469   7.334515885
C       -0.975970815   6.323704615   5.764122637
H       -1.466081289   7.172594907   6.258172690
H       -1.690762387   5.880329284   5.052560508
H       -0.132362595   6.715800464   5.174504055
N       -2.193608690   1.524852294   6.718675652
O        1.513430303   2.264307081   6.821324844
H        1.774860154   1.758899381   7.692957570
O        1.806506813   1.533898727   9.164069750
H       -0.835977868  11.919359023  10.910720638
H        2.330672132  11.657650977   5.508990638
H        3.657487868   3.798650977  -0.107250638
C        0.149080701  13.169209768   9.444408386
C        3.315720701  10.407790232   4.042668386
C        2.672429299   2.548790232   1.359061614
C        0.441619222  13.311710513   8.074450023
C        3.608259222  10.265289487   2.672710023
C        2.379890778   2.406289487   2.729019977
H        1.057690963  14.145726343   7.738757600
H        4.224340963   9.431273657   2.337027600
H        1.763819037   1.572273657   3.064712400
C       -0.043209435  12.402274143   7.150033432
C        3.123430565  11.174725857   1.748293432
C        2.864719435   3.315725857   3.653436568
H        0.194816421  12.564281226   6.099652815
H        3.361466421  11.012718774   0.697922815
H        2.626693579   3.153718774   4.703817185
C       -0.835015801  11.302809370   7.539464699
C        2.331634199  12.274190630   2.137724699
C        3.656525801   4.415190630   3.264005301
C       -1.415311680  10.343537796   6.588390911
C        1.751328320  13.233462204   1.186660911
C        4.236821680   5.374462204   4.215079089
C       -1.173532776  10.470694448   5.174047104
C       -4.340172776  13.106305552  10.575777104
C        3.995042776   5.247305552   5.629422896
H       -0.524720274  11.271661942   4.828156123
H       -3.691370274  12.305338058  10.229886123
H        3.346230274   4.446338058   5.975313877
C       -1.715934360   9.596730139   4.273425393
C       -4.882584360  13.980269861   9.675165393
C        4.537444360   6.121269861   6.530044607
H       -2.345563584   8.799844339   4.678628093
H       -5.512213584  14.777155661  10.080358093
H        5.167073584   6.918155661   6.124841907
C       -1.540504041   9.596363313   2.856233597
C       -4.707154041  13.980636687   8.257973597
C        4.362014041   6.121636687   7.947236403
C       -0.803873980  10.581006796   2.157686798
C       -3.970513980  12.995993204   7.559416798
C        3.625383980   5.136993204   8.645783202
C        0.630830815  14.182704615  10.441087363
C        3.797480815   9.394295385   5.039347363
C        2.190679185   1.535295385   0.362382637
H       -0.358691474  11.410461969   2.705596058
H       -3.525331474  12.166538031   8.107326058
H        3.180201474   4.307538031   8.097873942
C        8.541172476  10.515010159   0.796587546
C        5.374532476  13.061989841   6.198327546
C       -5.719662476   5.202989841  10.006882454
H       -0.030245235  11.292619681   0.307477146
H       -3.196895235  12.284380319   5.709217146
H        2.851755235   4.425380319  10.495992854
C        7.990007088   9.449885934   0.025683728
C        4.823357088  14.127114066   5.427423728
C       -5.168497088   6.268114066  10.777786272
C        7.232026268   8.465209224   0.719296401
C        4.065386268  15.111790776   6.121026401
C       -4.410516268   7.252790776  10.084173599
H        6.783328740   7.635323369   0.177312190
H        3.616688740   0.223676631   5.579042190
H       -3.961818740   8.082676631  10.626157810
C        7.056905730   8.549265486   2.084505770
C        3.890255730  15.027734514   7.486245770
C       -4.235395730   7.168734514   8.718964230
H        6.481787278   7.781140139   2.602405361
H        3.315147278  15.795859861   8.004145361
H       -3.660277278   7.936859861   8.201064639
C        2.696314686  10.356848117   8.815250298
C        5.862964686  13.220151883   3.413510298
C        0.125195314   5.361151883   1.988219702
H        2.301181669  11.377668133   8.932064388
H        5.467831669  12.199331867   3.530334388
H        0.520328331   4.340331867   1.871405612
H        2.737531695  10.122869927   7.747509724
H        5.904181695  13.454130073   2.345769724
H        0.083978305   5.595130073   3.055960276
H        3.723438531  10.330327267   9.214585812
H        6.890088531  13.246672733   3.812855812
H       -0.901928531   5.387672733   1.588884188
C        1.268536979   8.292208956   8.720466667
C        4.435186979  15.284791044   3.318726667
C        1.552973021   7.425791044   2.083003333
H        1.702082853   7.320076487   9.005793938
H        4.868722853   0.538923513   3.604053938
H        1.119427147   8.397923513   1.797676062
H        1.458675715   8.456395132   7.655186813
H        4.625325715  15.120604868   2.253456813
H        1.362834285   7.261604868   3.148283187
H        0.179354221   8.249117469   8.870684115
H        3.345994221  15.327882531   3.468954115
H        2.642155779   7.468882531   1.932785885
H        1.120951289  15.031594907   9.947037310
H        4.287591289   8.545405093   4.545297310
H        1.700558711   0.686405093   0.856432690
H        7.678922387  13.739329284   0.349179492
H        4.512272387   9.837670716   5.750909492
H       -4.857412387   1.978670716  10.454290508
H        6.120512595  14.574800464   0.227225945
H        2.953872595   9.002199536   5.628965945
H       -3.299002595   1.143199536  10.576244055
N        1.848478690   9.383852294   9.486534348
N        5.015118690  14.193147706   4.084794348
N        0.973031310   6.334147706   1.316935652
O       -1.858570303  10.123307081   9.383875156
O        1.308079697  13.453692919   3.982145156
O        4.680080303   5.594692919   1.419594844
H       -2.119990154   9.617899381   8.512242430
H        1.046649846  13.959100619   3.110512430
H        4.941500154   6.100100619   2.291227570
O       -2.151636813   9.392898727   7.041130250
O        1.015003187  14.184101273   1.639400250
O        4.973146813   6.325101273   3.762339750
C       -1.104152312  11.148001344   8.933294787
C        2.062487688  12.428998656   3.531564787
C        3.925662312   4.569998656   1.870175213
C       -0.609807608  12.075808502   9.855666978
C        2.556832392  11.501191498   4.453936978
C        3.431317608   3.642191498   0.947803022
End final coordinates



     Writing output data file 2hc_2_211.save
 
     init_run     :    128.53s CPU    131.01s WALL (       1 calls)
     electrons    :  86746.07s CPU  87435.33s WALL (      34 calls)
     update_pot   :     57.97s CPU     58.41s WALL (      33 calls)
     forces       :   2173.38s CPU   2200.51s WALL (      34 calls)

     Called by init_run:
     wfcinit      :    116.97s CPU    118.54s WALL (       1 calls)
     potinit      :      4.86s CPU      4.93s WALL (       1 calls)

     Called by electrons:
     c_bands      :  76538.08s CPU  76999.24s WALL (     374 calls)
     sum_band     :   8734.75s CPU   8861.11s WALL (     374 calls)
     v_of_rho     :    283.22s CPU    285.29s WALL (     408 calls)
     newd         :    608.99s CPU    710.98s WALL (     408 calls)
     mix_rho      :     52.66s CPU     54.75s WALL (     374 calls)

     Called by c_bands:
     init_us_2    :    302.23s CPU    303.52s WALL (    1566 calls)
     cegterg      :  75430.95s CPU  75887.29s WALL (     748 calls)

     Called by sum_band:
     sum_band:bec :      1.65s CPU      1.67s WALL (     748 calls)
     addusdens    :    628.00s CPU    729.35s WALL (     374 calls)

     Called by *egterg:
     h_psi        :  45046.15s CPU  45179.99s WALL (    3963 calls)
     s_psi        :  10055.24s CPU  10077.99s WALL (    3963 calls)
     g_psi        :     83.92s CPU     84.21s WALL (    3213 calls)
     cdiaghg      :   1944.61s CPU   1948.91s WALL (    3895 calls)

     Called by h_psi:
     h_psi:pot    :  44885.38s CPU  45018.30s WALL (    3963 calls)
     h_psi:calbec :   9044.99s CPU   9065.02s WALL (    3963 calls)
     vloc_psi     :  25771.79s CPU  25861.54s WALL (    3963 calls)
     add_vuspsi   :  10068.54s CPU  10091.67s WALL (    3963 calls)

     General routines
     calbec       :  13078.14s CPU  13106.76s WALL (    4983 calls)
     fft          :    174.94s CPU    177.06s WALL (    5305 calls)
     fftw         :  26659.41s CPU  26747.46s WALL ( 1131328 calls)
     davcio       :      0.01s CPU      0.38s WALL (       2 calls)
 
     Parallel routines
     fft_scatter  :   4037.43s CPU   4055.85s WALL ( 1136633 calls)
 
     PWSCF        :     1d    0h46m CPU        1d    0h58m WALL

 
   This run was terminated on:   0:38: 0   9Nov2017            

=------------------------------------------------------------------------------=
   JOB DONE.
=------------------------------------------------------------------------------=
