
     Program PWSCF v.6.1 (svn rev. 13369) starts on  9Nov2017 at 20:17:21 

     This program is part of the open-source Quantum ESPRESSO suite
     for quantum simulation of materials; please cite
         "P. Giannozzi et al., J. Phys.:Condens. Matter 21 395502 (2009);
          URL http://www.quantum-espresso.org", 
     in publications or presentations arising from this work. More details at
     http://www.quantum-espresso.org/quote

     Parallel version (MPI), running on     1 processors
     Waiting for input...
     Reading input from standard input

     Current dimensions of program PWSCF are:
     Max number of different atomic species (ntypx) = 10
     Max number of k-points (npk) =  40000
     Max angular momentum in pseudopotentials (lmaxx) =  3
     Message from routine iosys:
     london is obsolete, use "vdw_corr='grimme-d2'" instead

     IMPORTANT: XC functional enforced from input :
     Exchange-correlation      = PBE ( 1  4  3  4 0 0)
     Any further DFT definition will be discarded
     Please, verify this is what you really want

               file C.pbe-rrkjus.UPF: wavefunction(s)  2S 2P renormalized
               file H.pbe-rrkjus.UPF: wavefunction(s)  1S renormalized
               file O.pbe-rrkjus.UPF: wavefunction(s)  2S renormalized
               file N.pbe-rrkjus.UPF: wavefunction(s)  2S renormalized

     -------------------------------------
     Parameters for Dispersion Correction:
     -------------------------------------
       atom      VdW radius       C_6     

        C          2.744         60.710
        H          1.892          4.857
        O          2.536         24.284
        N          2.640         42.670

     Subspace diagonalization in iterative solution of the eigenvalue problem:
     a serial algorithm will be used

 
     G-vector sticks info
     --------------------
     sticks:   dense  smooth     PW     G-vecs:    dense   smooth      PW
     Sum        4907    4907   1369               232865   232865   34453
 


     bravais-lattice index     =            0
     lattice parameter (alat)  =      17.3001  a.u.
     unit-cell volume          =   10490.7385 (a.u.)^3
     number of atoms/cell      =          160
     number of atomic types    =            4
     number of electrons       =       432.00
     number of Kohn-Sham states=          216
     kinetic-energy cutoff     =      30.0000  Ry
     charge density cutoff     =     120.0000  Ry
     convergence threshold     =      1.0E-07
     mixing beta               =       0.7000
     number of iterations used =            8  plain     mixing
     Exchange-correlation      = PBE ( 1  4  3  4 0 0)
     nstep                     =           50


     celldm(1)=  17.300066  celldm(2)=   0.000000  celldm(3)=   0.000000
     celldm(4)=   0.000000  celldm(5)=   0.000000  celldm(6)=   0.000000

     crystal axes: (cart. coord. in units of alat)
               a(1) = (   1.000000   0.000000   0.000000 )  
               a(2) = (   0.000000   1.716913   0.000000 )  
               a(3) = (  -0.691800   0.000000   1.180088 )  

     reciprocal axes: (cart. coord. in units 2 pi/alat)
               b(1) = (  1.000000  0.000000  0.586227 )  
               b(2) = (  0.000000  0.582441  0.000000 )  
               b(3) = (  0.000000  0.000000  0.847394 )  


     PseudoPot. # 1 for C  read from file:
     /data/home/btx156/espresso/pseudo/C.pbe-rrkjus.UPF
     MD5 check sum: 00fb224312de0c5b6853bd333518df6f
     Pseudo is Ultrasoft, Zval =  4.0
     Generated by new atomic code, or converted to UPF format
     Using radial grid of  627 points,  4 beta functions with: 
                l(1) =   0
                l(2) =   0
                l(3) =   1
                l(4) =   1
     Q(r) pseudized with 0 coefficients 


     PseudoPot. # 2 for H  read from file:
     /data/home/btx156/espresso/pseudo/H.pbe-rrkjus.UPF
     MD5 check sum: 7cc9d459525c9a0585f487a71c3c9563
     Pseudo is Ultrasoft, Zval =  1.0
     Generated by new atomic code, or converted to UPF format
     Using radial grid of 1061 points,  2 beta functions with: 
                l(1) =   0
                l(2) =   0
     Q(r) pseudized with 0 coefficients 


     PseudoPot. # 3 for O  read from file:
     /data/home/btx156/espresso/pseudo/O.pbe-rrkjus.UPF
     MD5 check sum: 390ba29e75625707450f3bd3f0eb6be9
     Pseudo is Ultrasoft, Zval =  6.0
     Generated by new atomic code, or converted to UPF format
     Using radial grid of 1269 points,  4 beta functions with: 
                l(1) =   0
                l(2) =   0
                l(3) =   1
                l(4) =   1
     Q(r) pseudized with 0 coefficients 


     PseudoPot. # 4 for N  read from file:
     /data/home/btx156/espresso/pseudo/N.pbe-rrkjus.UPF
     MD5 check sum: 0c3fbe5807a93f9ba59d5a7019aa238b
     Pseudo is Ultrasoft, Zval =  5.0
     Generated by new atomic code, or converted to UPF format
     Using radial grid of 1257 points,  4 beta functions with: 
                l(1) =   0
                l(2) =   0
                l(3) =   1
                l(4) =   1
     Q(r) pseudized with 0 coefficients 


     atomic species   valence    mass     pseudopotential
        C              4.00    12.00000     C ( 1.00)
        H              1.00     1.00790     H ( 1.00)
        O              6.00    15.99940     O ( 1.00)
        N              5.00    14.00670     N ( 1.00)

      4 Sym. Ops., with inversion, found ( 2 have fractional translation)



   Cartesian axes

     site n.     atom                  positions (alat units)
         1           C   tau(   1) = (   0.0885623   0.3627671   0.7968541  )
         2           C   tau(   2) = (   0.0336698   0.4629145   0.6979038  )
         3           H   tau(   3) = (   0.0530115   0.4506903   0.5988945  )
         4           C   tau(   4) = (  -0.0488771   0.5802650   0.7426770  )
         5           C   tau(   5) = (  -0.0801011   0.5945504   0.8906125  )
         6           H   tau(   6) = (  -0.1375497   0.6720005   0.9225925  )
         7           C   tau(   7) = (  -0.0267750   0.4953805   0.9901887  )
         8           H   tau(   8) = (  -0.0481551   0.5080351   1.0887490  )
         9           C   tau(   9) = (   0.0591406   0.3755057   0.9471741  )
        10           C   tau(  10) = (   0.1204701   0.2707913   1.0506674  )
        11           C   tau(  11) = (   0.7839690   0.2828614   0.0264932  )
        12           H   tau(  12) = (   0.7248569   0.3583202   0.0599489  )
        13           C   tau(  13) = (   0.8402455   0.1891008   0.1230830  )
        14           H   tau(  14) = (   0.8975674   0.1146896   0.0844945  )
        15           C   tau(  15) = (   0.8232839   0.1887403   0.2802945  )
        16           C   tau(  16) = (   0.7461998   0.2951031   0.3565168  )
        17           H   tau(  17) = (   0.7063693   0.3730851   0.3050531  )
        18           C   tau(  18) = (  -0.2731179   0.2889227   0.5047822  )
        19           H   tau(  19) = (   0.6744604   0.3624405   0.5512190  )
        20           C   tau(  20) = (  -0.2153100   0.1739066   0.5880139  )
        21           C   tau(  21) = (  -0.1343492   0.0684701   0.5125125  )
        22           H   tau(  22) = (  -0.0920424   1.7086719   0.5638463  )
        23           C   tau(  23) = (  -0.1165585   0.0765576   0.3642930  )
        24           H   tau(  24) = (  -0.0622329   0.0044643   0.3176792  )
        25           C   tau(  25) = (  -0.3319909   0.2693155   0.8087145  )
        26           H   tau(  26) = (  -0.2966739   0.3669048   0.7938447  )
        27           H   tau(  27) = (  -0.3336774   0.2480939   0.9113820  )
        28           H   tau(  28) = (  -0.4288919   0.2607987   0.7696530  )
        29           C   tau(  29) = (  -0.1762005   0.0499454   0.8216957  )
        30           H   tau(  30) = (  -0.2194739   1.6760507   0.7923111  )
        31           H   tau(  31) = (  -0.1962260   0.0671309   0.9230644  )
        32           H   tau(  32) = (  -0.0724833   0.0456700   0.8068259  )
        33           C   tau(  33) = (  -0.1040809   0.6913837   0.6345338  )
        34           H   tau(  34) = (  -0.1547352   0.7678037   0.6856316  )
        35           H   tau(  35) = (  -0.1697481   0.6450441   0.5672685  )
        36           H   tau(  36) = (  -0.0231267   0.7322639   0.5819013  )
        37           N   tau(  37) = (  -0.2367501   0.1672784   0.7354666  )
        38           O   tau(  38) = (   0.1728721   0.2536909   0.7437857  )
        39           H   tau(  39) = (   0.1989262   0.2007067   0.8110739  )
        40           O   tau(  40) = (   0.2012201   0.1703860   1.0041836  )
        41           H   tau(  41) = (  -0.0907120   1.3091471   1.1712369  )
        42           H   tau(  42) = (   0.2551885   1.2662242   0.5811934  )
        43           H   tau(  43) = (   0.3989120   0.4077675   0.0088511  )
        44           C   tau(  44) = (   0.0111777   1.4387217   1.0274555  )
        45           C   tau(  45) = (   0.3570771   1.1366485   0.4374110  )
        46           C   tau(  46) = (   0.2970223   0.2781918   0.1526325  )
        47           C   tau(  47) = (   0.0424018   1.4530071   0.8795200  )
        48           C   tau(  48) = (   0.3883012   1.1223631   0.2894755  )
        49           C   tau(  49) = (   0.2657983   0.2639064   0.3005680  )
        50           H   tau(  50) = (   0.0998493   1.5304572   0.8475390  )
        51           H   tau(  51) = (   0.4457498   1.0449130   0.2574955  )
        52           H   tau(  52) = (   0.2083508   0.1864563   0.3325490  )
        53           C   tau(  53) = (  -0.0109243   1.3538373   0.7799438  )
        54           C   tau(  54) = (   0.3349751   1.2215329   0.1898993  )
        55           C   tau(  55) = (   0.3191244   0.3630762   0.4001442  )
        56           H   tau(  56) = (   0.0104546   1.3664918   0.6813824  )
        57           H   tau(  57) = (   0.3563551   1.2088783   0.0913390  )
        58           H   tau(  58) = (   0.2977454   0.3504216   0.4987056  )
        59           C   tau(  59) = (  -0.0968410   1.2339625   0.8229584  )
        60           C   tau(  60) = (   0.2490595   1.3414077   0.2329139  )
        61           C   tau(  61) = (   0.4050411   0.4829510   0.3571296  )
        62           C   tau(  62) = (  -0.1581695   1.1292480   0.7194641  )
        63           C   tau(  63) = (   0.1877299   1.4461222   0.1294206  )
        64           C   tau(  64) = (   0.4663695   0.5876655   0.4606239  )
        65           C   tau(  65) = (  -0.1298696   1.1413182   0.5635513  )
        66           C   tau(  66) = (  -0.4757690   1.4340520   1.1535948  )
        67           C   tau(  67) = (   0.4380696   0.5755953   0.6165367  )
        68           H   tau(  68) = (  -0.0707563   1.2167769   0.5300957  )
        69           H   tau(  69) = (  -0.4166568   1.3585932   1.1201391  )
        70           H   tau(  70) = (   0.3789564   0.5001365   0.6499923  )
        71           C   tau(  71) = (  -0.1861450   1.0475575   0.4669605  )
        72           C   tau(  72) = (  -0.5320455   1.5278127   1.0570050  )
        73           C   tau(  73) = (   0.4943450   0.6693559   0.7131275  )
        74           H   tau(  74) = (  -0.2434668   0.9731463   0.5055501  )
        75           H   tau(  75) = (  -0.5893673   1.6022239   1.0955935  )
        76           H   tau(  76) = (   0.5516669   0.7437672   0.6745379  )
        77           C   tau(  77) = (  -0.1691834   1.0471971   0.3097490  )
        78           C   tau(  78) = (  -0.5150839   1.5281731   0.8997935  )
        79           C   tau(  79) = (   0.4773834   0.6697164   0.8703390  )
        80           C   tau(  80) = (  -0.0921003   1.1535598   0.2335278  )
        81           C   tau(  81) = (  -0.4379997   1.4218104   0.8235712  )
        82           C   tau(  82) = (   0.4003004   0.5633536   0.9465602  )
        83           C   tau(  83) = (   0.0663805   1.5498405   1.1355988  )
        84           C   tau(  84) = (   0.4122810   1.0255297   0.5455542  )
        85           C   tau(  85) = (   0.2418196   0.1670730   0.0444892  )
        86           H   tau(  86) = (  -0.0522698   1.2315419   0.2849915  )
        87           H   tau(  87) = (  -0.3981692   1.3438283   0.8750349  )
        88           H   tau(  88) = (   0.3604699   0.4853716   0.8950965  )
        89           C   tau(  89) = (   0.9272174   1.1473795   0.0852613  )
        90           C   tau(  90) = (   0.5813180   1.4279907   0.6753058  )
        91           C   tau(  91) = (  -0.6190173   0.5695340   1.0948267  )
        92           H   tau(  92) = (  -0.0203598   1.2208972   0.0388244  )
        93           H   tau(  93) = (  -0.3662603   1.3544730   0.6288690  )
        94           H   tau(  94) = (   0.3285599   0.4960163   1.1412635  )
        95           C   tau(  95) = (   0.8694105   1.0323633   0.0020295  )
        96           C   tau(  96) = (   0.5235100   1.5430069   0.5920741  )
        97           C   tau(  97) = (  -0.5612105   0.6845502   1.1780585  )
        98           C   tau(  98) = (   0.7884486   0.9269268   0.0775320  )
        99           C   tau(  99) = (   0.4425492   1.6484434   0.6675754  )
       100           C   tau( 100) = (  -0.4802486   0.7899866   1.1025560  )
       101           H   tau( 101) = (   0.7461419   0.8502151   0.0261983  )
       102           H   tau( 102) = (   0.4002425   0.0082416   0.6162417  )
       103           H   tau( 103) = (  -0.4379418   0.8666983   1.1538897  )
       104           C   tau( 104) = (   0.7706591   0.9350144   0.2257504  )
       105           C   tau( 105) = (   0.4247586   1.6403558   0.8157950  )
       106           C   tau( 106) = (  -0.4624590   0.7818991   0.9543376  )
       107           H   tau( 107) = (   0.7163324   0.8629211   0.2723642  )
       108           H   tau( 108) = (   0.3704330   1.7124491   0.8624088  )
       109           H   tau( 109) = (  -0.4081323   0.8539924   0.9077238  )
       110           C   tau( 110) = (   0.2942904   1.1277723   0.9614180  )
       111           C   tau( 111) = (   0.6401909   1.4475979   0.3713735  )
       112           C   tau( 112) = (   0.0139096   0.5891412   0.2186700  )
       113           H   tau( 113) = (   0.2589734   1.2253615   0.9762867  )
       114           H   tau( 114) = (   0.6048739   1.3500087   0.3862433  )
       115           H   tau( 115) = (   0.0492266   0.4915520   0.2038013  )
       116           H   tau( 116) = (   0.2959770   1.1065506   0.8587506  )
       117           H   tau( 117) = (   0.6418775   1.4688196   0.2687060  )
       118           H   tau( 118) = (   0.0122231   0.6103628   0.3213374  )
       119           H   tau( 119) = (   0.3911915   1.1192554   1.0004784  )
       120           H   tau( 120) = (   0.7370920   1.4561148   0.4104349  )
       121           H   tau( 121) = (  -0.0829914   0.5976580   0.1796096  )
       122           C   tau( 122) = (   0.1385000   0.9084021   0.9484368  )
       123           C   tau( 123) = (   0.4844005   1.6669681   0.3583923  )
       124           C   tau( 124) = (   0.1697000   0.8085113   0.2316511  )
       125           H   tau( 125) = (   0.1817746   0.8175940   0.9778214  )
       126           H   tau( 126) = (   0.5276740   0.0408627   0.3877769  )
       127           H   tau( 127) = (   0.1264255   0.8993194   0.2022666  )
       128           H   tau( 128) = (   0.1585256   0.9255876   0.8470671  )
       129           H   tau( 129) = (   0.5044261   1.6497826   0.2570236  )
       130           H   tau( 130) = (   0.1496745   0.7913258   0.3330209  )
       131           H   tau( 131) = (   0.0347839   0.9041268   0.9633055  )
       132           H   tau( 132) = (   0.3806833   1.6712434   0.3732621  )
       133           H   tau( 133) = (   0.2734161   0.8127867   0.2167824  )
       134           H   tau( 134) = (   0.1170359   1.6262605   1.0845010  )
       135           H   tau( 135) = (   0.4629353   0.9491097   0.4944564  )
       136           H   tau( 136) = (   0.1911642   0.0906530   0.0955870  )
       137           H   tau( 137) = (   0.8238487   1.5035008   0.0227760  )
       138           H   tau( 138) = (   0.4779482   1.0718694   0.6128195  )
       139           H   tau( 139) = (  -0.5156486   0.2134126   1.1573120  )
       140           H   tau( 140) = (   0.6772261   1.5907206   0.0081422  )
       141           H   tau( 141) = (   0.3313267   0.9846495   0.5981867  )
       142           H   tau( 142) = (  -0.3690261   0.1261928   1.1719458  )
       143           N   tau( 143) = (   0.1990508   1.0257351   1.0346659  )
       144           N   tau( 144) = (   0.5449502   1.5496351   0.4446214  )
       145           N   tau( 145) = (   0.1091493   0.6911784   0.1454221  )
       146           O   tau( 146) = (  -0.2105726   1.1121477   1.0263457  )
       147           O   tau( 147) = (   0.1353279   1.4632225   0.4363022  )
       148           O   tau( 148) = (   0.5187726   0.6047658   0.1537423  )
       149           H   tau( 149) = (  -0.2366256   1.0591635   0.9590575  )
       150           H   tau( 150) = (   0.1092738   1.5162067   0.3690141  )
       151           H   tau( 151) = (   0.5448256   0.6577500   0.2210305  )
       152           O   tau( 152) = (  -0.2389195   1.0288427   0.7659479  )
       153           O   tau( 153) = (   0.1069799   1.5465274   0.1759044  )
       154           O   tau( 154) = (   0.5471195   0.6880707   0.4141401  )
       155           C   tau( 155) = (  -0.1262616   1.2212238   0.9732774  )
       156           C   tau( 156) = (   0.2196378   1.3541464   0.3832339  )
       157           C   tau( 157) = (   0.4344617   0.4956897   0.2068106  )
       158           C   tau( 158) = (  -0.0713691   1.3213712   1.0722276  )
       159           C   tau( 159) = (   0.2745303   1.2539989   0.4821842  )
       160           C   tau( 160) = (   0.3795692   0.3955422   0.1078604  )

     number of k points=     4
                       cart. coord. in units 2pi/alat
        k(    1) = (   0.0000000   0.0000000   0.0000000), wk =   0.5000000
        k(    2) = (   0.0000000   0.0000000  -0.4236972), wk =   0.5000000
        k(    3) = (  -0.5000000   0.0000000  -0.2931137), wk =   0.5000000
        k(    4) = (  -0.5000000   0.0000000  -0.7168109), wk =   0.5000000

     Dense  grid:   232865 G-vectors     FFT dimensions: (  64, 108,  90)

     Estimated max dynamical RAM per process >    1785.42MB

     Initial potential from superposition of free atoms

     starting charge  424.68464, renormalised to  432.00000
     Starting wfc are  412 randomized atomic wfcs

     total cpu time spent up to now is       64.3 secs

     per-process dynamical memory:  1040.8 Mb

     Self-consistent Calculation

     iteration #  1     ecut=    30.00 Ry     beta=0.70
     Davidson diagonalization with overlap
     ethr =  1.00E-02,  avg # of iterations =  2.0

     total cpu time spent up to now is      193.0 secs

     total energy              =   -1230.50895200 Ry
     Harris-Foulkes estimate   =   -1259.05209056 Ry
     estimated scf accuracy    <      42.51171821 Ry

     iteration #  2     ecut=    30.00 Ry     beta=0.70
     Davidson diagonalization with overlap
     ethr =  9.84E-03,  avg # of iterations =  3.0

     total cpu time spent up to now is      319.9 secs

     total energy              =   -1235.81096471 Ry
     Harris-Foulkes estimate   =   -1246.99181096 Ry
     estimated scf accuracy    <      19.33736906 Ry

     iteration #  3     ecut=    30.00 Ry     beta=0.70
     Davidson diagonalization with overlap
     ethr =  4.48E-03,  avg # of iterations =  4.0

     total cpu time spent up to now is      439.3 secs

     total energy              =   -1240.51888948 Ry
     Harris-Foulkes estimate   =   -1243.00608913 Ry
     estimated scf accuracy    <       5.05353453 Ry

     iteration #  4     ecut=    30.00 Ry     beta=0.70
     Davidson diagonalization with overlap
     ethr =  1.17E-03,  avg # of iterations =  3.8

     total cpu time spent up to now is      550.3 secs

     total energy              =   -1241.62827547 Ry
     Harris-Foulkes estimate   =   -1241.91577058 Ry
     estimated scf accuracy    <       0.59411991 Ry

     iteration #  5     ecut=    30.00 Ry     beta=0.70
     Davidson diagonalization with overlap
     ethr =  1.38E-04,  avg # of iterations =  4.0

     total cpu time spent up to now is      665.1 secs

     total energy              =   -1241.75614177 Ry
     Harris-Foulkes estimate   =   -1241.78759735 Ry
     estimated scf accuracy    <       0.06316854 Ry

     iteration #  6     ecut=    30.00 Ry     beta=0.70
     Davidson diagonalization with overlap
     ethr =  1.46E-05,  avg # of iterations =  4.0

     total cpu time spent up to now is      782.0 secs

     total energy              =   -1241.77098586 Ry
     Harris-Foulkes estimate   =   -1241.77465580 Ry
     estimated scf accuracy    <       0.00784133 Ry

     iteration #  7     ecut=    30.00 Ry     beta=0.70
     Davidson diagonalization with overlap
     ethr =  1.82E-06,  avg # of iterations =  4.0

     total cpu time spent up to now is      898.9 secs

     total energy              =   -1241.77272928 Ry
     Harris-Foulkes estimate   =   -1241.77340240 Ry
     estimated scf accuracy    <       0.00147465 Ry

     iteration #  8     ecut=    30.00 Ry     beta=0.70
     Davidson diagonalization with overlap
     ethr =  3.41E-07,  avg # of iterations =  3.8

     total cpu time spent up to now is     1010.4 secs

     total energy              =   -1241.77305120 Ry
     Harris-Foulkes estimate   =   -1241.77314696 Ry
     estimated scf accuracy    <       0.00020929 Ry

     iteration #  9     ecut=    30.00 Ry     beta=0.70
     Davidson diagonalization with overlap
     ethr =  4.84E-08,  avg # of iterations =  3.0

     total cpu time spent up to now is     1123.7 secs

     total energy              =   -1241.77309935 Ry
     Harris-Foulkes estimate   =   -1241.77311776 Ry
     estimated scf accuracy    <       0.00004145 Ry

     iteration # 10     ecut=    30.00 Ry     beta=0.70
     Davidson diagonalization with overlap
     ethr =  9.60E-09,  avg # of iterations =  3.5

     total cpu time spent up to now is     1233.3 secs

     total energy              =   -1241.77310805 Ry
     Harris-Foulkes estimate   =   -1241.77311059 Ry
     estimated scf accuracy    <       0.00000571 Ry

     iteration # 11     ecut=    30.00 Ry     beta=0.70
     Davidson diagonalization with overlap
     ethr =  1.32E-09,  avg # of iterations =  4.0

     total cpu time spent up to now is     1355.5 secs

     total energy              =   -1241.77310934 Ry
     Harris-Foulkes estimate   =   -1241.77310959 Ry
     estimated scf accuracy    <       0.00000058 Ry

     iteration # 12     ecut=    30.00 Ry     beta=0.70
     Davidson diagonalization with overlap
     ethr =  1.34E-10,  avg # of iterations =  5.0

     total cpu time spent up to now is     1474.0 secs

     total energy              =   -1241.77310946 Ry
     Harris-Foulkes estimate   =   -1241.77310956 Ry
     estimated scf accuracy    <       0.00000024 Ry

     iteration # 13     ecut=    30.00 Ry     beta=0.70
     Davidson diagonalization with overlap
     ethr =  5.60E-11,  avg # of iterations =  5.0

     total cpu time spent up to now is     1585.1 secs

     End of self-consistent calculation

          k = 0.0000 0.0000 0.0000 ( 29063 PWs)   bands (ev):

   -21.7966 -21.7964 -21.7961 -21.7959 -19.6910 -19.6903 -19.6901 -19.6895
   -18.2800 -18.2792 -18.2590 -18.2583 -15.8334 -15.8278 -15.8171 -15.8138
   -15.6559 -15.6460 -15.6323 -15.6260 -14.2872 -14.2757 -14.2506 -14.2371
   -13.8992 -13.8660 -13.8631 -13.8356 -13.4006 -13.3840 -13.3773 -13.3590
   -13.1555 -13.1541 -13.1121 -13.1074 -12.9426 -12.9405 -12.9083 -12.9037
   -12.8247 -12.8120 -12.8074 -12.7841 -12.1424 -12.1351 -12.0851 -12.0844
   -11.2945 -11.2781 -11.2764 -11.2746 -10.2713 -10.2610 -10.2073 -10.2040
    -9.9991  -9.9773  -9.9587  -9.9578  -9.8781  -9.8763  -9.7853  -9.7574
    -9.7509  -9.7138  -9.7087  -9.6649  -8.9153  -8.9028  -8.8907  -8.8449
    -8.2218  -8.2100  -8.1973  -8.1891  -7.8364  -7.8054  -7.7770  -7.7575
    -7.2909  -7.2710  -7.2634  -7.2353  -7.1684  -7.1326  -7.1171  -7.1071
    -6.4403  -6.4225  -6.4195  -6.4174  -6.4084  -6.3680  -6.3669  -6.3480
    -6.3421  -6.3284  -6.2241  -6.2163  -6.0727  -6.0311  -5.9768  -5.9446
    -5.8266  -5.8073  -5.7803  -5.7160  -5.5912  -5.5770  -5.3221  -5.3212
    -5.2646  -5.2066  -5.1582  -5.1548  -5.1480  -5.0990  -5.0769  -5.0418
    -5.0133  -5.0028  -4.9895  -4.9771  -4.9520  -4.9483  -4.9264  -4.9056
    -4.8750  -4.8624  -4.8416  -4.8294  -4.6353  -4.5962  -4.5851  -4.5794
    -4.5195  -4.5097  -4.4601  -4.3885  -4.3757  -4.3658  -4.3468  -4.3139
    -4.2842  -4.2742  -4.2475  -4.2360  -4.0067  -4.0031  -3.9971  -3.9467
    -3.8270  -3.8111  -3.7443  -3.7079  -3.6556  -3.6144  -3.6087  -3.5547
    -3.4603  -3.4544  -3.4500  -3.4215  -3.3769  -3.3220  -3.2969  -3.2843
    -3.1338  -3.0937  -3.0888  -3.0490  -3.0371  -3.0043  -2.9974  -2.9738
    -2.6153  -2.5762  -2.4630  -2.4518  -2.4138  -2.4023  -2.3798  -2.3664
    -2.3600  -2.3340  -2.3122  -2.2868  -2.1171  -2.0981  -1.9927  -1.9914
    -0.7034  -0.6970  -0.6897  -0.6820  -0.6186  -0.5898  -0.5773  -0.5367
    -0.4966  -0.3992  -0.3977  -0.3856   0.0396   0.0432   0.0589   0.0598
     0.0610   0.0722   0.0749   0.0838   1.1511   1.1814   1.1871   1.2053

          k = 0.0000 0.0000-0.4237 ( 29068 PWs)   bands (ev):

   -21.7963 -21.7963 -21.7962 -21.7962 -19.6908 -19.6906 -19.6899 -19.6897
   -18.2798 -18.2794 -18.2589 -18.2585 -15.8259 -15.8258 -15.8217 -15.8216
   -15.6493 -15.6492 -15.6297 -15.6296 -14.2553 -14.2552 -14.2491 -14.2491
   -13.8941 -13.8941 -13.8705 -13.8705 -13.3914 -13.3913 -13.3670 -13.3668
   -13.1467 -13.1467 -13.1378 -13.1378 -12.9126 -12.9124 -12.9013 -12.9011
   -12.8262 -12.8261 -12.7941 -12.7940 -12.1277 -12.1277 -12.0838 -12.0837
   -11.2838 -11.2836 -11.2811 -11.2809 -10.2673 -10.2672 -10.2393 -10.2393
    -9.9673  -9.9673  -9.9519  -9.9519  -9.8240  -9.8240  -9.8069  -9.8068
    -9.7486  -9.7486  -9.6972  -9.6971  -8.9121  -8.9120  -8.8584  -8.8583
    -8.2275  -8.2275  -8.1863  -8.1863  -7.8060  -7.8059  -7.7811  -7.7810
    -7.2789  -7.2788  -7.2529  -7.2528  -7.1315  -7.1314  -7.1173  -7.1173
    -6.4486  -6.4485  -6.4199  -6.4199  -6.3764  -6.3764  -6.3550  -6.3549
    -6.3427  -6.3426  -6.2207  -6.2204  -6.0398  -6.0397  -5.9563  -5.9563
    -5.8289  -5.8289  -5.7435  -5.7434  -5.4614  -5.4614  -5.4469  -5.4469
    -5.2446  -5.2445  -5.1834  -5.1832  -5.1040  -5.1040  -5.0701  -5.0701
    -4.9874  -4.9873  -4.9687  -4.9687  -4.9562  -4.9561  -4.9003  -4.9002
    -4.8889  -4.8888  -4.8435  -4.8435  -4.6123  -4.6122  -4.5730  -4.5730
    -4.5140  -4.5140  -4.4310  -4.4309  -4.3915  -4.3914  -4.3236  -4.3236
    -4.2784  -4.2783  -4.2290  -4.2290  -4.0284  -4.0284  -3.9619  -3.9619
    -3.7139  -3.7139  -3.6960  -3.6959  -3.6377  -3.6377  -3.6337  -3.6337
    -3.5351  -3.5351  -3.4729  -3.4728  -3.3797  -3.3797  -3.2881  -3.2880
    -3.1145  -3.1144  -3.0541  -3.0541  -3.0335  -3.0334  -2.9744  -2.9743
    -2.4941  -2.4941  -2.4863  -2.4863  -2.4172  -2.4172  -2.3974  -2.3974
    -2.3564  -2.3564  -2.3065  -2.3064  -2.0582  -2.0580  -1.9493  -1.9491
    -0.7157  -0.7157  -0.6622  -0.6622  -0.6175  -0.6174  -0.6109  -0.6108
    -0.4487  -0.4487  -0.4226  -0.4226   0.0502   0.0503   0.0736   0.0736
     0.0949   0.0949   0.1154   0.1155   1.1213   1.1214   1.1305   1.1307

          k =-0.5000 0.0000-0.2931 ( 29122 PWs)   bands (ev):

   -21.7966 -21.7965 -21.7961 -21.7960 -19.6910 -19.6903 -19.6901 -19.6895
   -18.2800 -18.2793 -18.2591 -18.2583 -15.8288 -15.8285 -15.8168 -15.8137
   -15.6557 -15.6491 -15.6325 -15.6294 -14.2553 -14.2550 -14.2496 -14.2475
   -13.9145 -13.8891 -13.8721 -13.8532 -13.4026 -13.3846 -13.3709 -13.3578
   -13.1605 -13.1571 -13.1255 -13.1201 -12.9287 -12.9205 -12.8943 -12.8840
   -12.8336 -12.8125 -12.8117 -12.7883 -12.1427 -12.1096 -12.0983 -12.0712
   -11.2983 -11.2954 -11.2715 -11.2636 -10.3030 -10.2696 -10.2302 -10.2113
    -9.9895  -9.9729  -9.9447  -9.9447  -9.8913  -9.8804  -9.7659  -9.7518
    -9.7511  -9.7211  -9.6910  -9.6854  -8.9181  -8.8915  -8.8785  -8.8499
    -8.2268  -8.2137  -8.2092  -8.1722  -7.8403  -7.8056  -7.7686  -7.7569
    -7.2828  -7.2775  -7.2545  -7.2475  -7.1594  -7.1538  -7.1125  -7.0852
    -6.4484  -6.4322  -6.4321  -6.4154  -6.3866  -6.3777  -6.3757  -6.3477
    -6.3388  -6.3243  -6.2170  -6.2153  -6.0520  -6.0167  -5.9653  -5.9463
    -5.8314  -5.8026  -5.7752  -5.7212  -5.6077  -5.6049  -5.3325  -5.3165
    -5.2237  -5.2167  -5.1766  -5.1658  -5.1398  -5.0953  -5.0686  -5.0626
    -5.0211  -4.9989  -4.9832  -4.9612  -4.9592  -4.9523  -4.9377  -4.8976
    -4.8870  -4.8817  -4.8466  -4.8162  -4.6000  -4.5983  -4.5830  -4.5716
    -4.5484  -4.5219  -4.4414  -4.3846  -4.3804  -4.3759  -4.3701  -4.3174
    -4.2854  -4.2677  -4.2415  -4.2250  -4.0250  -4.0024  -3.9721  -3.9518
    -3.7574  -3.7238  -3.7057  -3.6739  -3.6429  -3.6154  -3.6095  -3.5899
    -3.5590  -3.5320  -3.5083  -3.4942  -3.4027  -3.3286  -3.3099  -3.2888
    -3.1684  -3.0802  -3.0730  -3.0467  -3.0183  -3.0134  -3.0039  -2.9757
    -2.5846  -2.5814  -2.4337  -2.4169  -2.4123  -2.3912  -2.3803  -2.3717
    -2.3644  -2.3483  -2.3230  -2.2770  -2.0923  -2.0623  -1.9643  -1.9277
    -0.7450  -0.6914  -0.6807  -0.6524  -0.6283  -0.5626  -0.5612  -0.5552
    -0.5359  -0.4697  -0.4111  -0.3993   0.0350   0.0618   0.0681   0.0699
     0.0854   0.1050   0.1070   0.1116   1.0714   1.1101   1.1371   1.1700

          k =-0.5000 0.0000-0.7168 ( 29132 PWs)   bands (ev):

   -21.7964 -21.7963 -21.7963 -21.7962 -19.6907 -19.6906 -19.6899 -19.6897
   -18.2798 -18.2794 -18.2589 -18.2585 -15.8230 -15.8229 -15.8201 -15.8201
   -15.6525 -15.6524 -15.6317 -15.6315 -14.2690 -14.2690 -14.2557 -14.2557
   -13.8820 -13.8820 -13.8497 -13.8497 -13.3946 -13.3945 -13.3665 -13.3664
   -13.1339 -13.1338 -13.1309 -13.1309 -12.9299 -12.9297 -12.9165 -12.9163
   -12.8231 -12.8230 -12.7927 -12.7926 -12.1386 -12.1385 -12.0849 -12.0849
   -11.2862 -11.2861 -11.2744 -11.2744 -10.2689 -10.2689 -10.2081 -10.2080
    -9.9847  -9.9847  -9.9536  -9.9536  -9.8250  -9.8249  -9.8159  -9.8159
    -9.7403  -9.7403  -9.6906  -9.6905  -8.9174  -8.9173  -8.8629  -8.8628
    -8.2225  -8.2224  -8.1891  -8.1891  -7.8067  -7.8066  -7.7816  -7.7815
    -7.2834  -7.2834  -7.2518  -7.2517  -7.1475  -7.1474  -7.1048  -7.1048
    -6.4223  -6.4222  -6.4210  -6.4209  -6.3787  -6.3787  -6.3583  -6.3581
    -6.3317  -6.3315  -6.2123  -6.2121  -6.0644  -6.0644  -5.9722  -5.9721
    -5.8209  -5.8209  -5.7268  -5.7268  -5.4718  -5.4717  -5.4582  -5.4582
    -5.2386  -5.2385  -5.1947  -5.1946  -5.1059  -5.1058  -5.0340  -5.0340
    -5.0190  -5.0190  -4.9747  -4.9746  -4.9534  -4.9534  -4.9120  -4.9119
    -4.8754  -4.8753  -4.8326  -4.8325  -4.6023  -4.6023  -4.5848  -4.5848
    -4.5216  -4.5216  -4.4398  -4.4398  -4.3939  -4.3938  -4.3087  -4.3087
    -4.2767  -4.2767  -4.2513  -4.2513  -4.0253  -4.0253  -3.9504  -3.9503
    -3.8022  -3.8021  -3.7513  -3.7513  -3.6295  -3.6295  -3.5785  -3.5785
    -3.4780  -3.4780  -3.4042  -3.4042  -3.3431  -3.3430  -3.2954  -3.2954
    -3.1331  -3.1330  -3.0630  -3.0630  -3.0270  -3.0270  -2.9744  -2.9743
    -2.4781  -2.4780  -2.4531  -2.4531  -2.4357  -2.4356  -2.4266  -2.4266
    -2.3616  -2.3615  -2.3120  -2.3119  -2.1094  -2.1092  -1.9954  -1.9952
    -0.6922  -0.6922  -0.6764  -0.6764  -0.6119  -0.6119  -0.5259  -0.5259
    -0.4819  -0.4819  -0.3941  -0.3941   0.0353   0.0353   0.0520   0.0520
     0.0755   0.0755   0.0895   0.0896   1.1681   1.1683   1.1898   1.1900

     highest occupied level (ev):     1.2053

!    total energy              =   -1241.77310951 Ry
     Harris-Foulkes estimate   =   -1241.77310952 Ry
     estimated scf accuracy    <       0.00000002 Ry

     The total energy is the sum of the following terms:

     one-electron contribution =   -1212.45793621 Ry
     hartree contribution      =     747.03317674 Ry
     xc contribution           =    -392.02454720 Ry
     ewald contribution        =    -383.67302835 Ry
     Dispersion Correction     =      -0.65077449 Ry

     convergence has been achieved in  13 iterations

     Forces acting on atoms (cartesian axes, Ry/au):

     atom    1 type  1   force =     0.00734497   -0.01025500    0.00188213
     atom    2 type  1   force =    -0.05493391    0.03342874    0.28303366
     atom    3 type  2   force =     0.06815306   -0.04454767   -0.32401310
     atom    4 type  1   force =    -0.00817527    0.01158671    0.00215821
     atom    5 type  1   force =     0.17195641   -0.23233853   -0.09082238
     atom    6 type  2   force =    -0.18810828    0.25485191    0.10647158
     atom    7 type  1   force =     0.07049438   -0.05426756   -0.29766272
     atom    8 type  2   force =    -0.07090348    0.04246443    0.32206536
     atom    9 type  1   force =    -0.01086783    0.01588576    0.00346162
     atom   10 type  1   force =     0.00273071   -0.00375351    0.02262588
     atom   11 type  1   force =     0.14994804   -0.18476726   -0.12624861
     atom   12 type  2   force =    -0.19714077    0.25280868    0.10382358
     atom   13 type  1   force =    -0.15506590    0.19677840    0.16012163
     atom   14 type  2   force =     0.19446813   -0.25402709   -0.12296890
     atom   15 type  1   force =     0.00004943    0.00095996   -0.03075250
     atom   16 type  1   force =     0.11154791   -0.22171844    0.15447245
     atom   17 type  2   force =    -0.13486523    0.25911607   -0.16625812
     atom   18 type  1   force =     0.15046718   -0.21317109   -0.13787249
     atom   19 type  2   force =    -0.17351473    0.24330653    0.14940647
     atom   20 type  1   force =    -0.00757445    0.00308951    0.03250604
     atom   21 type  1   force =    -0.12193058    0.22137517   -0.14446104
     atom   22 type  2   force =     0.14002794   -0.25449279    0.16614908
     atom   23 type  1   force =    -0.15655261    0.20921654    0.13274964
     atom   24 type  2   force =     0.17940205   -0.24020895   -0.15479103
     atom   25 type  1   force =     0.13748302   -0.14021000   -0.11468562
     atom   26 type  2   force =     0.08408126    0.24259847   -0.03281769
     atom   27 type  2   force =    -0.00238523   -0.05168970    0.24404761
     atom   28 type  2   force =    -0.24304713   -0.01830179   -0.09385788
     atom   29 type  1   force =    -0.08165439    0.16425707   -0.13765700
     atom   30 type  2   force =    -0.10584041   -0.22970109   -0.06855910
     atom   31 type  2   force =    -0.04852818    0.04325391    0.24394809
     atom   32 type  2   force =     0.25535114   -0.01255420   -0.03369038
     atom   33 type  1   force =     0.08127279   -0.16807645    0.17129323
     atom   34 type  2   force =    -0.12186155    0.18522570    0.11888715
     atom   35 type  2   force =    -0.16175126   -0.11177893   -0.16841201
     atom   36 type  2   force =     0.19675785    0.09980337   -0.13076177
     atom   37 type  4   force =     0.00886897    0.00149741   -0.02382111
     atom   38 type  3   force =    -0.16585521    0.33876488   -0.45283345
     atom   39 type  2   force =     0.17152819   -0.34473001    0.43867591
     atom   40 type  3   force =     0.01934917   -0.03160822   -0.01408700
     atom   41 type  2   force =    -0.06815306   -0.04454767    0.32401310
     atom   42 type  2   force =    -0.06815306    0.04454767    0.32401310
     atom   43 type  2   force =     0.06815306    0.04454767   -0.32401310
     atom   44 type  1   force =     0.00817527    0.01158671   -0.00215821
     atom   45 type  1   force =     0.00817527   -0.01158671   -0.00215821
     atom   46 type  1   force =    -0.00817527   -0.01158671    0.00215821
     atom   47 type  1   force =    -0.17195641   -0.23233853    0.09082238
     atom   48 type  1   force =    -0.17195641    0.23233853    0.09082238
     atom   49 type  1   force =     0.17195641    0.23233853   -0.09082238
     atom   50 type  2   force =     0.18810828    0.25485191   -0.10647158
     atom   51 type  2   force =     0.18810828   -0.25485191   -0.10647158
     atom   52 type  2   force =    -0.18810828   -0.25485191    0.10647158
     atom   53 type  1   force =    -0.07049438   -0.05426756    0.29766272
     atom   54 type  1   force =    -0.07049438    0.05426756    0.29766272
     atom   55 type  1   force =     0.07049438    0.05426756   -0.29766272
     atom   56 type  2   force =     0.07090348    0.04246443   -0.32206536
     atom   57 type  2   force =     0.07090348   -0.04246443   -0.32206536
     atom   58 type  2   force =    -0.07090348   -0.04246443    0.32206536
     atom   59 type  1   force =     0.01086783    0.01588576   -0.00346162
     atom   60 type  1   force =     0.01086783   -0.01588576   -0.00346162
     atom   61 type  1   force =    -0.01086783   -0.01588576    0.00346162
     atom   62 type  1   force =    -0.00273071   -0.00375351   -0.02262588
     atom   63 type  1   force =    -0.00273071    0.00375351   -0.02262588
     atom   64 type  1   force =     0.00273071    0.00375351    0.02262588
     atom   65 type  1   force =    -0.14994804   -0.18476726    0.12624861
     atom   66 type  1   force =    -0.14994804    0.18476726    0.12624861
     atom   67 type  1   force =     0.14994804    0.18476726   -0.12624861
     atom   68 type  2   force =     0.19714077    0.25280868   -0.10382358
     atom   69 type  2   force =     0.19714077   -0.25280868   -0.10382358
     atom   70 type  2   force =    -0.19714077   -0.25280868    0.10382358
     atom   71 type  1   force =     0.15506590    0.19677840   -0.16012163
     atom   72 type  1   force =     0.15506590   -0.19677840   -0.16012163
     atom   73 type  1   force =    -0.15506590   -0.19677840    0.16012163
     atom   74 type  2   force =    -0.19446813   -0.25402709    0.12296890
     atom   75 type  2   force =    -0.19446813    0.25402709    0.12296890
     atom   76 type  2   force =     0.19446813    0.25402709   -0.12296890
     atom   77 type  1   force =    -0.00004943    0.00095996    0.03075250
     atom   78 type  1   force =    -0.00004943   -0.00095996    0.03075250
     atom   79 type  1   force =     0.00004943   -0.00095996   -0.03075250
     atom   80 type  1   force =    -0.11154791   -0.22171844   -0.15447245
     atom   81 type  1   force =    -0.11154791    0.22171844   -0.15447245
     atom   82 type  1   force =     0.11154791    0.22171844    0.15447245
     atom   83 type  1   force =    -0.08127279   -0.16807645   -0.17129323
     atom   84 type  1   force =    -0.08127279    0.16807645   -0.17129323
     atom   85 type  1   force =     0.08127279    0.16807645    0.17129323
     atom   86 type  2   force =     0.13486523    0.25911607    0.16625812
     atom   87 type  2   force =     0.13486523   -0.25911607    0.16625812
     atom   88 type  2   force =    -0.13486523   -0.25911607   -0.16625812
     atom   89 type  1   force =    -0.15046718   -0.21317109    0.13787249
     atom   90 type  1   force =    -0.15046718    0.21317109    0.13787249
     atom   91 type  1   force =     0.15046718    0.21317109   -0.13787249
     atom   92 type  2   force =     0.17351473    0.24330653   -0.14940647
     atom   93 type  2   force =     0.17351473   -0.24330653   -0.14940647
     atom   94 type  2   force =    -0.17351473   -0.24330653    0.14940647
     atom   95 type  1   force =     0.00757445    0.00308951   -0.03250604
     atom   96 type  1   force =     0.00757445   -0.00308951   -0.03250604
     atom   97 type  1   force =    -0.00757445   -0.00308951    0.03250604
     atom   98 type  1   force =     0.12193058    0.22137517    0.14446104
     atom   99 type  1   force =     0.12193058   -0.22137517    0.14446104
     atom  100 type  1   force =    -0.12193058   -0.22137517   -0.14446104
     atom  101 type  2   force =    -0.14002794   -0.25449279   -0.16614908
     atom  102 type  2   force =    -0.14002794    0.25449279   -0.16614908
     atom  103 type  2   force =     0.14002794    0.25449279    0.16614908
     atom  104 type  1   force =     0.15655261    0.20921654   -0.13274964
     atom  105 type  1   force =     0.15655261   -0.20921654   -0.13274964
     atom  106 type  1   force =    -0.15655261   -0.20921654    0.13274964
     atom  107 type  2   force =    -0.17940205   -0.24020895    0.15479103
     atom  108 type  2   force =    -0.17940205    0.24020895    0.15479103
     atom  109 type  2   force =     0.17940205    0.24020895   -0.15479103
     atom  110 type  1   force =    -0.13748302   -0.14021000    0.11468562
     atom  111 type  1   force =    -0.13748302    0.14021000    0.11468562
     atom  112 type  1   force =     0.13748302    0.14021000   -0.11468562
     atom  113 type  2   force =    -0.08408126    0.24259847    0.03281769
     atom  114 type  2   force =    -0.08408126   -0.24259847    0.03281769
     atom  115 type  2   force =     0.08408126   -0.24259847   -0.03281769
     atom  116 type  2   force =     0.00238523   -0.05168970   -0.24404761
     atom  117 type  2   force =     0.00238523    0.05168970   -0.24404761
     atom  118 type  2   force =    -0.00238523    0.05168970    0.24404761
     atom  119 type  2   force =     0.24304713   -0.01830179    0.09385788
     atom  120 type  2   force =     0.24304713    0.01830179    0.09385788
     atom  121 type  2   force =    -0.24304713    0.01830179   -0.09385788
     atom  122 type  1   force =     0.08165439    0.16425707    0.13765700
     atom  123 type  1   force =     0.08165439   -0.16425707    0.13765700
     atom  124 type  1   force =    -0.08165439   -0.16425707   -0.13765700
     atom  125 type  2   force =     0.10584041   -0.22970109    0.06855910
     atom  126 type  2   force =     0.10584041    0.22970109    0.06855910
     atom  127 type  2   force =    -0.10584041    0.22970109   -0.06855910
     atom  128 type  2   force =     0.04852818    0.04325391   -0.24394809
     atom  129 type  2   force =     0.04852818   -0.04325391   -0.24394809
     atom  130 type  2   force =    -0.04852818   -0.04325391    0.24394809
     atom  131 type  2   force =    -0.25535114   -0.01255420    0.03369038
     atom  132 type  2   force =    -0.25535114    0.01255420    0.03369038
     atom  133 type  2   force =     0.25535114    0.01255420   -0.03369038
     atom  134 type  2   force =     0.12186155    0.18522570   -0.11888715
     atom  135 type  2   force =     0.12186155   -0.18522570   -0.11888715
     atom  136 type  2   force =    -0.12186155   -0.18522570    0.11888715
     atom  137 type  2   force =     0.16175126   -0.11177893    0.16841201
     atom  138 type  2   force =     0.16175126    0.11177893    0.16841201
     atom  139 type  2   force =    -0.16175126    0.11177893   -0.16841201
     atom  140 type  2   force =    -0.19675785    0.09980337    0.13076177
     atom  141 type  2   force =    -0.19675785   -0.09980337    0.13076177
     atom  142 type  2   force =     0.19675785   -0.09980337   -0.13076177
     atom  143 type  4   force =    -0.00886897    0.00149741    0.02382111
     atom  144 type  4   force =    -0.00886897   -0.00149741    0.02382111
     atom  145 type  4   force =     0.00886897   -0.00149741   -0.02382111
     atom  146 type  3   force =     0.16585521    0.33876488    0.45283345
     atom  147 type  3   force =     0.16585521   -0.33876488    0.45283345
     atom  148 type  3   force =    -0.16585521   -0.33876488   -0.45283345
     atom  149 type  2   force =    -0.17152819   -0.34473001   -0.43867591
     atom  150 type  2   force =    -0.17152819    0.34473001   -0.43867591
     atom  151 type  2   force =     0.17152819    0.34473001    0.43867591
     atom  152 type  3   force =    -0.01934917   -0.03160822    0.01408700
     atom  153 type  3   force =    -0.01934917    0.03160822    0.01408700
     atom  154 type  3   force =     0.01934917    0.03160822   -0.01408700
     atom  155 type  1   force =    -0.00734497   -0.01025500   -0.00188213
     atom  156 type  1   force =    -0.00734497    0.01025500   -0.00188213
     atom  157 type  1   force =     0.00734497    0.01025500    0.00188213
     atom  158 type  1   force =     0.05493391    0.03342874   -0.28303366
     atom  159 type  1   force =     0.05493391   -0.03342874   -0.28303366
     atom  160 type  1   force =    -0.05493391   -0.03342874    0.28303366

     Total force =     3.603645     Total SCF correction =     0.000299

     BFGS Geometry Optimization

     number of scf cycles    =   1
     number of bfgs steps    =   0

     energy   new            =   -1241.7731095096 Ry

     new trust radius        =       0.5000000000 bohr
     new conv_thr            =       0.0000001000 Ry


ATOMIC_POSITIONS (angstrom)
C        0.814067549   3.316455983   7.295884989
C        0.283577228   4.252897949   6.516238964
H        0.515907559   4.105980167   5.337293168
C       -0.451130316   5.317411895   6.800028936
C       -0.656109560   5.338680795   8.112604971
H       -1.343691881   6.266446668   8.493950795
C       -0.213471296   4.510746387   8.931343267
H       -0.472682371   4.670024558  10.111872385
C        0.536540849   3.444811970   8.672744106
C        1.104105964   2.477354847   9.628807967
C        7.244399705   2.506588083   0.185860239
H        6.547412952   3.393849355   0.595431963
C        7.622662613   1.819524360   1.198687172
H        8.304357156   0.935913638   0.718322675
C        7.537022194   1.728310978   2.552233554
C        6.881389828   2.602068718   3.333190956
H        6.406121778   3.531851079   2.718057826
C       -2.432787225   2.549326082   4.559281655
H        6.096649949   3.427303328   5.113376566
C       -1.974520578   1.593467045   5.397743700
C       -1.284681165   0.726217167   4.627093704
H       -0.779763959  15.528294560   5.236493218
C       -1.137354847   0.794798509   3.394628422
H       -0.489186812  -0.066972660   2.838796017
C       -2.977586513   2.402582225   7.352131486
H       -2.678241419   3.467855442   7.252756380
H       -3.055820858   2.248043724   8.453086040
H       -4.035536872   2.379343345   7.003882170
C       -1.649739029   0.530983792   7.460658403
H       -2.056757425  15.240784881   7.222670147
H       -1.818196899   0.633988996   8.559991362
H       -0.548929199   0.412463746   7.371204586
C       -0.916352294   6.254021482   5.885932704
H       -1.471280175   7.112247735   6.330194808
H       -1.626628801   5.855066452   5.117620831
H       -0.123384866   6.748537075   5.268484040
N       -2.163418242   1.532072267   6.722355428
O        1.508148714   2.474579693   6.605908815
H        1.898138187   1.682662242   7.622165104
O        1.850816878   1.545659379   9.186775594
H       -0.861047559  11.964980167  10.867906832
H        2.305602441  11.612029833   5.466176832
H        3.682557559   3.753029833  -0.064436832
C        0.106000316  13.176411895   9.405181064
C        3.272640316  10.400588105   4.003441064
C        2.715509684   2.541588105   1.398288936
C        0.310979560  13.197680795   8.092605029
C        3.477619560  10.379319205   2.690865029
C        2.510530440   2.520319205   2.710864971
H        0.998551881  14.125446668   7.711249205
H        4.165201881   9.451553332   2.309519205
H        1.822958119   1.592553332   3.092220795
C       -0.131658704  12.369746387   7.273866733
C        3.034981296  11.207253613   1.872126733
C        2.953168704   3.348253613   3.529603267
H        0.127542371  12.529024558   6.093327615
H        3.294192371  11.047975442   0.691597615
H        2.693967629   3.188975442   4.710142385
C       -0.881680849  11.303811970   7.532465894
C        2.284969151  12.273188030   2.130725894
C        3.703190849   4.414188030   3.271004106
C       -1.449235964  10.336354847   6.576392033
C        1.717404036  13.240645153   1.174662033
C        4.270745964   5.381645153   4.227077967
C       -1.256249705  10.365588083   5.215879761
C       -4.422889705  13.211411917  10.617609761
C        4.077759705   5.352411917   5.587590239
H       -0.559252952  11.252849355   4.806308037
H       -3.725902952  12.324150645  10.208038037
H        3.380762952   4.465150645   5.997161963
C       -1.634502613   9.678524360   4.203042828
C       -4.801152613  13.898475640   9.604782828
C        4.456012613   6.039475640   6.600427172
H       -2.316197156   8.794913638   4.683417325
H       -5.482847156  14.782086362  10.085147325
H        5.137707156   6.923086362   6.120052675
C       -1.548862194   9.587310978   2.849496446
C       -4.715512194  13.989689022   8.251236446
C        4.370372194   6.130689022   7.953973554
C       -0.893239828  10.461068718   2.068549044
C       -4.059879828  13.115931282   7.470279044
C        3.714749828   5.256931282   8.734920956
C        0.571212294  14.113021482  10.319277296
C        3.737862294   9.463978518   4.917537296
C        2.250297706   1.604978518   0.484192704
H       -0.417971778  11.390851079   2.683682174
H       -3.584611778  12.186148921   8.085412174
H        3.239481778   4.327148921   8.119787826
C        8.420937225  10.408326082   0.842448345
C        5.254297225  13.168673918   6.244188345
C       -5.599427225   5.309673918   9.961021655
H       -0.108489949  11.286303328   0.288353434
H       -3.275139949  12.290696672   5.690093434
H        2.929999949   4.431696672  10.515116566
C        7.962680578   9.452467045   0.003986300
C        4.796030578  14.124532955   5.405726300
C       -5.141170578   6.265532955  10.799483700
C        7.272831165   8.585217167   0.774646296
C        4.106191165  14.991782833   6.176376296
C       -4.451321165   7.132782833  10.028823704
H        6.767913959   7.669294560   0.165246782
H        3.601273959   0.189705440   5.566976782
H       -3.946403959   8.048705440  10.638223218
C        7.125514847   8.653798509   2.007101578
C        3.958864847  14.923201491   7.408841578
C       -4.304004847   7.064201491   8.796368422
H        6.477336812   7.792027340   2.562933983
H        3.310696812  15.784972660   7.964673983
H       -3.655826812   7.925972660   8.240536017
C        2.632446513  10.261582225   8.853078514
C        5.799096513  13.315417775   3.451338514
C        0.189063487   5.456417775   1.950391486
H        2.333101419  11.326855442   8.952443620
H        5.499751419  12.250144558   3.550713620
H        0.488408581   4.391144558   1.851026380
H        2.710680858  10.107043724   7.752123960
H        5.877330858  13.469956276   2.350383960
H        0.110829142   5.610956276   3.051346040
H        3.690396872  10.238343345   9.201317830
H        6.857046872  13.338656655   3.799587830
H       -0.868886872   5.479656655   1.602152170
C        1.304599029   8.389983792   8.744551597
C        4.471249029  15.187016208   3.342811597
C        1.516910971   7.328016208   2.058918403
H        1.711627425   7.381784881   8.982539853
H        4.878267425   0.477215119   3.580799853
H        1.109882575   8.336215119   1.820930147
H        1.473056899   8.492988996   7.645208638
H        4.639706899  15.084011004   2.243478638
H        1.348453101   7.225011004   3.158261362
H        0.203799199   8.271463746   8.833995414
H        3.370439199  15.305536254   3.432265414
H        2.617710801   7.446536254   1.969474586
H        1.126150175  14.971247735   9.875015192
H        4.292790175   8.605752265   4.473275192
H        1.695359825   0.746752265   0.928454808
H        7.614788801  13.714066452   0.284119169
H        4.448138801   9.862933548   5.685849169
H       -4.793278801   2.003933548  10.519350831
H        6.111534866  14.607537075   0.133245960
H        2.944894866   8.969462925   5.534985960
H       -3.290024866   1.110462925  10.670224040
N        1.818288242   9.391072267   9.482854572
N        4.984928242  14.185927733   4.081114572
N        1.003221758   6.326927733   1.320615428
O       -1.853288714  10.333579693   9.599291185
O        1.313361286  13.243420307   4.197561185
O        4.674798714   5.384420307   1.204178815
H       -2.243268187   9.541662242   8.583034896
H        0.923371813  14.035337758   3.181304896
H        5.064778187   6.176337758   2.220435104
O       -2.195946878   9.404659379   7.018424406
O        0.970693122  14.172340621   1.616694406
O        5.017456878   6.313340621   3.785045594
C       -1.159197549  11.175455983   8.909315011
C        2.007442451  12.401544017   3.507585011
C        3.980707549   4.542544017   1.894154989
C       -0.628707228  12.111897949   9.688961036
C        2.537932772  11.465102051   4.287231036
C        3.450217228   3.606102051   1.114508964



     Writing output data file 2hc_2_212.save
     charge density from previous step

     total cpu time spent up to now is     1621.6 secs

     per-process dynamical memory:  1081.7 Mb

     Self-consistent Calculation

     iteration #  1     ecut=    30.00 Ry     beta=0.70
     Davidson diagonalization with overlap
     ethr =  1.00E-06,  avg # of iterations = 19.8

     total cpu time spent up to now is     2030.6 secs

     total energy              =   -1210.96022384 Ry
     Harris-Foulkes estimate   =   -1270.52668972 Ry
     estimated scf accuracy    <      78.24147013 Ry

     iteration #  2     ecut=    30.00 Ry     beta=0.70
     Davidson diagonalization with overlap
     ethr =  1.00E-02,  avg # of iterations =  5.8

     total cpu time spent up to now is     2198.6 secs

     total energy              =   -1192.08864804 Ry
     Harris-Foulkes estimate   =   -1271.47980077 Ry
     estimated scf accuracy    <     190.46509634 Ry

     iteration #  3     ecut=    30.00 Ry     beta=0.70
     Davidson diagonalization with overlap
     ethr =  1.00E-02,  avg # of iterations =  8.0

     total cpu time spent up to now is     2385.1 secs

     total energy              =   -1234.34521741 Ry
     Harris-Foulkes estimate   =   -1249.25288166 Ry
     estimated scf accuracy    <      42.26546832 Ry

     iteration #  4     ecut=    30.00 Ry     beta=0.70
     Davidson diagonalization with overlap
     ethr =  9.78E-03,  avg # of iterations =  3.2

     total cpu time spent up to now is     2492.0 secs

     total energy              =   -1241.54118284 Ry
     Harris-Foulkes estimate   =   -1243.74497704 Ry
     estimated scf accuracy    <       5.34273141 Ry

     iteration #  5     ecut=    30.00 Ry     beta=0.70
     Davidson diagonalization with overlap
     ethr =  1.24E-03,  avg # of iterations =  4.0

     total cpu time spent up to now is     2598.6 secs

     total energy              =   -1242.31702587 Ry
     Harris-Foulkes estimate   =   -1242.57242111 Ry
     estimated scf accuracy    <       0.68590312 Ry

     iteration #  6     ecut=    30.00 Ry     beta=0.70
     Davidson diagonalization with overlap
     ethr =  1.59E-04,  avg # of iterations =  4.0

     total cpu time spent up to now is     2703.0 secs

     total energy              =   -1242.39789436 Ry
     Harris-Foulkes estimate   =   -1242.45489639 Ry
     estimated scf accuracy    <       0.19222522 Ry

     iteration #  7     ecut=    30.00 Ry     beta=0.70
     Davidson diagonalization with overlap
     ethr =  4.45E-05,  avg # of iterations =  4.0

     total cpu time spent up to now is     2802.1 secs

     total energy              =   -1242.40467570 Ry
     Harris-Foulkes estimate   =   -1242.42769402 Ry
     estimated scf accuracy    <       0.05462520 Ry

     iteration #  8     ecut=    30.00 Ry     beta=0.70
     Davidson diagonalization with overlap
     ethr =  1.26E-05,  avg # of iterations =  4.0

     total cpu time spent up to now is     2918.2 secs

     total energy              =   -1242.41330866 Ry
     Harris-Foulkes estimate   =   -1242.41963762 Ry
     estimated scf accuracy    <       0.01524875 Ry

     iteration #  9     ecut=    30.00 Ry     beta=0.70
     Davidson diagonalization with overlap
     ethr =  3.53E-06,  avg # of iterations =  3.2

     total cpu time spent up to now is     3024.2 secs

     total energy              =   -1242.41589962 Ry
     Harris-Foulkes estimate   =   -1242.41656684 Ry
     estimated scf accuracy    <       0.00150738 Ry

     iteration # 10     ecut=    30.00 Ry     beta=0.70
     Davidson diagonalization with overlap
     ethr =  3.49E-07,  avg # of iterations =  4.0

     total cpu time spent up to now is     3139.6 secs

     total energy              =   -1242.41618791 Ry
     Harris-Foulkes estimate   =   -1242.41631183 Ry
     estimated scf accuracy    <       0.00026520 Ry

     iteration # 11     ecut=    30.00 Ry     beta=0.70
     Davidson diagonalization with overlap
     ethr =  6.14E-08,  avg # of iterations =  4.0

     total cpu time spent up to now is     3254.7 secs

     total energy              =   -1242.41623478 Ry
     Harris-Foulkes estimate   =   -1242.41625773 Ry
     estimated scf accuracy    <       0.00005259 Ry

     iteration # 12     ecut=    30.00 Ry     beta=0.70
     Davidson diagonalization with overlap
     ethr =  1.22E-08,  avg # of iterations =  4.0

     total cpu time spent up to now is     3372.3 secs

     total energy              =   -1242.41624536 Ry
     Harris-Foulkes estimate   =   -1242.41625004 Ry
     estimated scf accuracy    <       0.00000976 Ry

     iteration # 13     ecut=    30.00 Ry     beta=0.70
     Davidson diagonalization with overlap
     ethr =  2.26E-09,  avg # of iterations =  3.8

     total cpu time spent up to now is     3495.9 secs

     total energy              =   -1242.41624747 Ry
     Harris-Foulkes estimate   =   -1242.41624800 Ry
     estimated scf accuracy    <       0.00000119 Ry

     iteration # 14     ecut=    30.00 Ry     beta=0.70
     Davidson diagonalization with overlap
     ethr =  2.76E-10,  avg # of iterations =  3.2

     total cpu time spent up to now is     3611.1 secs

     total energy              =   -1242.41624773 Ry
     Harris-Foulkes estimate   =   -1242.41624780 Ry
     estimated scf accuracy    <       0.00000014 Ry

     iteration # 15     ecut=    30.00 Ry     beta=0.70
     Davidson diagonalization with overlap
     ethr =  3.27E-11,  avg # of iterations =  4.0

     total cpu time spent up to now is     3725.2 secs

     End of self-consistent calculation

          k = 0.0000 0.0000 0.0000 ( 29063 PWs)   bands (ev):

   -20.4418 -20.4412 -20.4392 -20.4388 -19.9338 -19.9331 -19.9320 -19.9317
   -19.4823 -19.4818 -19.4661 -19.4656 -16.8903 -16.8896 -16.8747 -16.8736
   -16.3455 -16.3439 -16.3419 -16.3406 -14.6737 -14.6707 -14.6621 -14.6595
   -14.0211 -14.0152 -14.0037 -14.0020 -13.3719 -13.3605 -13.3482 -13.3391
   -13.2308 -13.2275 -13.2090 -13.2046 -12.5292 -12.5160 -12.5110 -12.4977
   -12.2301 -12.2285 -12.2228 -12.2227 -12.0556 -12.0463 -12.0282 -12.0195
   -11.4769 -11.4662 -11.4444 -11.4355 -10.2030 -10.1773 -10.1703 -10.1302
    -9.3223  -9.3014  -9.2998  -9.2923  -8.9634  -8.9513  -8.9324  -8.9125
    -8.8465  -8.8398  -8.7918  -8.7664  -8.4403  -8.4392  -8.4106  -8.3829
    -7.9277  -7.9241  -7.9060  -7.8649  -7.5937  -7.5457  -7.5362  -7.5237
    -7.2044  -7.1816  -7.1688  -7.1354  -6.6601  -6.6493  -6.6416  -6.6259
    -6.5396  -6.5352  -6.5097  -6.5046  -6.4632  -6.4576  -6.2604  -6.2427
    -6.2088  -6.1915  -6.1446  -6.0781  -5.6850  -5.6826  -5.6503  -5.5910
    -5.5254  -5.5044  -5.4279  -5.3724  -5.2054  -5.1431  -5.0788  -5.0701
    -4.9985  -4.9274  -4.8997  -4.8841  -4.7959  -4.7652  -4.7112  -4.7014
    -4.6833  -4.6226  -4.6045  -4.4289  -4.4112  -4.4050  -4.3676  -4.3397
    -4.3391  -4.2848  -4.2652  -4.2461  -4.1051  -4.0747  -4.0338  -4.0031
    -3.9584  -3.8958  -3.8556  -3.8334  -3.8298  -3.8282  -3.7861  -3.7744
    -3.7713  -3.7302  -3.6761  -3.6354  -3.6347  -3.6110  -3.4991  -3.4040
    -3.3846  -3.3422  -3.3396  -3.3378  -3.1813  -3.1749  -3.1330  -3.1246
    -3.0824  -2.9845  -2.9770  -2.9419  -2.8753  -2.8715  -2.8707  -2.8545
    -2.7144  -2.5607  -2.5179  -2.4885  -2.4843  -2.4781  -2.4633  -2.4339
    -2.3432  -2.2977  -2.2900  -2.2828  -1.7941  -1.7406  -1.7088  -1.6256
    -1.3495  -1.3434  -1.1787  -1.1304  -1.0528  -1.0327  -1.0289  -1.0261
    -0.9400  -0.9254  -0.8576  -0.8495  -0.7790  -0.7405  -0.6567  -0.6446
    -0.5305  -0.4831  -0.4218  -0.3912  -0.3868  -0.3825  -0.3154  -0.2505
     0.3937   0.4129   0.4465   0.4606   0.9245   0.9250   0.9328   0.9348

          k = 0.0000 0.0000-0.4237 ( 29068 PWs)   bands (ev):

   -20.4404 -20.4404 -20.4400 -20.4400 -19.9330 -19.9330 -19.9325 -19.9325
   -19.4822 -19.4818 -19.4661 -19.4657 -16.8894 -16.8892 -16.8749 -16.8747
   -16.3436 -16.3436 -16.3421 -16.3421 -14.6664 -14.6664 -14.6608 -14.6608
   -14.0264 -14.0263 -14.0157 -14.0157 -13.3496 -13.3495 -13.3406 -13.3405
   -13.2276 -13.2275 -13.2108 -13.2106 -12.5241 -12.5239 -12.5052 -12.5050
   -12.2310 -12.2309 -12.2254 -12.2253 -12.0435 -12.0435 -12.0024 -12.0024
   -11.4753 -11.4752 -11.4697 -11.4696 -10.1864 -10.1864 -10.1534 -10.1533
    -9.2968  -9.2968  -9.2760  -9.2760  -8.9547  -8.9546  -8.9450  -8.9449
    -8.8361  -8.8360  -8.7968  -8.7967  -8.4467  -8.4467  -8.3905  -8.3904
    -7.9603  -7.9601  -7.8675  -7.8674  -7.5580  -7.5580  -7.5245  -7.5245
    -7.1720  -7.1719  -7.1617  -7.1616  -6.6583  -6.6583  -6.6423  -6.6422
    -6.5337  -6.5337  -6.4918  -6.4918  -6.4703  -6.4700  -6.2501  -6.2499
    -6.2093  -6.2092  -6.1202  -6.1201  -5.6823  -5.6822  -5.6058  -5.6057
    -5.4933  -5.4932  -5.4430  -5.4429  -5.1217  -5.1216  -5.0928  -5.0928
    -4.9745  -4.9745  -4.8770  -4.8769  -4.7592  -4.7591  -4.6982  -4.6981
    -4.5819  -4.5818  -4.5341  -4.5341  -4.5270  -4.5269  -4.3817  -4.3816
    -4.3317  -4.3317  -4.2693  -4.2692  -4.0565  -4.0564  -4.0266  -4.0265
    -3.8637  -3.8637  -3.8492  -3.8492  -3.8039  -3.8038  -3.7441  -3.7441
    -3.6812  -3.6811  -3.6405  -3.6405  -3.6166  -3.6166  -3.5940  -3.5940
    -3.4404  -3.4403  -3.4038  -3.4038  -3.1581  -3.1581  -3.1320  -3.1319
    -3.0825  -3.0825  -2.9829  -2.9829  -2.8719  -2.8718  -2.8537  -2.8537
    -2.6062  -2.6062  -2.4311  -2.4311  -2.4039  -2.4039  -2.3902  -2.3901
    -2.3235  -2.3235  -2.2764  -2.2763  -1.7482  -1.7481  -1.6647  -1.6647
    -1.2777  -1.2776  -1.2474  -1.2474  -1.0651  -1.0650  -1.0227  -1.0226
    -1.0022  -1.0021  -0.8871  -0.8870  -0.7369  -0.7369  -0.6563  -0.6563
    -0.4868  -0.4868  -0.4540  -0.4539  -0.3567  -0.3567  -0.3065  -0.3065
     0.5574   0.5574   0.5705   0.5706   0.7562   0.7563   0.7986   0.7988

          k =-0.5000 0.0000-0.2931 ( 29122 PWs)   bands (ev):

   -20.4415 -20.4412 -20.4394 -20.4388 -19.9335 -19.9332 -19.9324 -19.9318
   -19.4823 -19.4818 -19.4661 -19.4656 -16.8901 -16.8895 -16.8744 -16.8735
   -16.3456 -16.3439 -16.3424 -16.3405 -14.6645 -14.6638 -14.6631 -14.6625
   -14.0404 -14.0269 -14.0108 -14.0049 -13.3592 -13.3522 -13.3441 -13.3244
   -13.2342 -13.2293 -13.2084 -13.2068 -12.5312 -12.5162 -12.5134 -12.4959
   -12.2343 -12.2300 -12.2296 -12.2212 -12.0509 -12.0333 -12.0051 -11.9991
   -11.4880 -11.4840 -11.4601 -11.4551 -10.2159 -10.1880 -10.1622 -10.1219
    -9.3224  -9.2945  -9.2728  -9.2633  -8.9675  -8.9465  -8.9390  -8.9308
    -8.8270  -8.8217  -8.8182  -8.8142  -8.4843  -8.4013  -8.3857  -8.3855
    -7.9290  -7.9243  -7.9192  -7.8669  -7.5811  -7.5362  -7.5346  -7.5204
    -7.1852  -7.1759  -7.1617  -7.1500  -6.6895  -6.6666  -6.6301  -6.6081
    -6.5536  -6.5252  -6.5192  -6.4689  -6.4672  -6.4630  -6.2570  -6.2421
    -6.2358  -6.1890  -6.1277  -6.1265  -5.6347  -5.6291  -5.6260  -5.5968
    -5.5571  -5.4990  -5.4501  -5.4145  -5.1403  -5.0856  -5.0650  -5.0631
    -4.9921  -4.9803  -4.8880  -4.8856  -4.8176  -4.7412  -4.7069  -4.6954
    -4.6651  -4.6315  -4.5936  -4.4764  -4.4652  -4.4377  -4.4184  -4.3659
    -4.3565  -4.3104  -4.3051  -4.2312  -4.0805  -4.0678  -4.0519  -4.0462
    -3.9688  -3.9007  -3.8778  -3.8409  -3.8277  -3.7908  -3.7857  -3.7691
    -3.7200  -3.6893  -3.6842  -3.6299  -3.5984  -3.5915  -3.4755  -3.4314
    -3.4169  -3.4097  -3.3551  -3.3545  -3.1846  -3.1428  -3.1373  -3.0716
    -3.0441  -3.0269  -2.9830  -2.9753  -2.9059  -2.8911  -2.8617  -2.8453
    -2.6969  -2.5935  -2.5524  -2.4324  -2.4264  -2.4049  -2.3993  -2.3742
    -2.3601  -2.2983  -2.2890  -2.2753  -1.8194  -1.7648  -1.6809  -1.6022
    -1.3829  -1.3402  -1.1920  -1.1381  -1.0243  -1.0148  -1.0116  -1.0102
    -0.9875  -0.9656  -0.9027  -0.8874  -0.7396  -0.6994  -0.6788  -0.6716
    -0.5293  -0.4926  -0.4721  -0.4275  -0.3839  -0.3813  -0.2628  -0.2627
     0.5309   0.5534   0.5566   0.5676   0.7425   0.7576   0.8062   0.8187

          k =-0.5000 0.0000-0.7168 ( 29132 PWs)   bands (ev):

   -20.4405 -20.4405 -20.4400 -20.4400 -19.9329 -19.9329 -19.9324 -19.9324
   -19.4823 -19.4819 -19.4661 -19.4657 -16.8893 -16.8891 -16.8747 -16.8745
   -16.3440 -16.3440 -16.3424 -16.3424 -14.6696 -14.6696 -14.6633 -14.6633
   -14.0179 -14.0178 -14.0031 -14.0030 -13.3580 -13.3578 -13.3527 -13.3525
   -13.2268 -13.2266 -13.2086 -13.2085 -12.5242 -12.5240 -12.5029 -12.5027
   -12.2275 -12.2274 -12.2257 -12.2257 -12.0504 -12.0504 -12.0242 -12.0242
   -11.4605 -11.4605 -11.4509 -11.4509 -10.1867 -10.1866 -10.1515 -10.1515
    -9.3105  -9.3104  -9.2926  -9.2925  -8.9482  -8.9481  -8.9404  -8.9403
    -8.8288  -8.8288  -8.7870  -8.7869  -8.4470  -8.4469  -8.3987  -8.3987
    -7.9506  -7.9505  -7.8679  -7.8678  -7.5717  -7.5717  -7.5232  -7.5232
    -7.1849  -7.1849  -7.1591  -7.1591  -6.6440  -6.6440  -6.6382  -6.6381
    -6.5323  -6.5323  -6.5128  -6.5127  -6.4561  -6.4559  -6.2569  -6.2567
    -6.1828  -6.1827  -6.1098  -6.1097  -5.6804  -5.6803  -5.6249  -5.6249
    -5.4917  -5.4916  -5.4401  -5.4400  -5.1246  -5.1245  -5.1040  -5.1039
    -4.9682  -4.9682  -4.8959  -4.8959  -4.7691  -4.7691  -4.6915  -4.6915
    -4.6859  -4.6858  -4.5423  -4.5422  -4.4468  -4.4468  -4.3550  -4.3550
    -4.3032  -4.3031  -4.2558  -4.2557  -4.0551  -4.0550  -4.0440  -4.0440
    -3.8874  -3.8874  -3.8241  -3.8241  -3.7884  -3.7884  -3.7308  -3.7308
    -3.6911  -3.6910  -3.6658  -3.6658  -3.6297  -3.6297  -3.6013  -3.6012
    -3.4254  -3.4254  -3.3537  -3.3537  -3.1785  -3.1785  -3.1311  -3.1310
    -3.0573  -3.0573  -2.9694  -2.9693  -2.8801  -2.8801  -2.8353  -2.8352
    -2.6436  -2.6436  -2.5017  -2.5017  -2.4800  -2.4800  -2.3955  -2.3955
    -2.2897  -2.2897  -2.2742  -2.2741  -1.7437  -1.7437  -1.6706  -1.6706
    -1.3083  -1.3083  -1.2556  -1.2555  -1.0304  -1.0304  -1.0025  -1.0024
    -0.9410  -0.9408  -0.8526  -0.8525  -0.7229  -0.7229  -0.6628  -0.6627
    -0.4856  -0.4855  -0.4268  -0.4268  -0.3750  -0.3750  -0.3283  -0.3283
     0.4534   0.4535   0.4720   0.4720   0.8972   0.8974   0.9040   0.9042

     highest occupied level (ev):     0.9348

!    total energy              =   -1242.41624776 Ry
     Harris-Foulkes estimate   =   -1242.41624777 Ry
     estimated scf accuracy    <       0.00000001 Ry

     The total energy is the sum of the following terms:

     one-electron contribution =   -1224.95738850 Ry
     hartree contribution      =     753.15283728 Ry
     xc contribution           =    -385.55101959 Ry
     ewald contribution        =    -384.40359712 Ry
     Dispersion Correction     =      -0.65707982 Ry

     convergence has been achieved in  15 iterations

     Forces acting on atoms (cartesian axes, Ry/au):

     atom    1 type  1   force =    -0.00230507   -0.00313105    0.03996204
     atom    2 type  1   force =     0.02728773    0.01019715   -0.30436357
     atom    3 type  2   force =    -0.01226185    0.00526721    0.09518208
     atom    4 type  1   force =     0.02664904   -0.04081384    0.00479916
     atom    5 type  1   force =    -0.23927428    0.35779275   -0.00348463
     atom    6 type  2   force =     0.05746400   -0.07875083   -0.02088682
     atom    7 type  1   force =     0.00185754   -0.08677152    0.40889323
     atom    8 type  2   force =     0.01804641   -0.00901693   -0.10603115
     atom    9 type  1   force =     0.09666191   -0.14025024   -0.00866453
     atom   10 type  1   force =     0.00668638    0.00642215   -0.07277348
     atom   11 type  1   force =    -0.19632575    0.26264771    0.05588499
     atom   12 type  2   force =     0.04141072   -0.04842625   -0.05150001
     atom   13 type  1   force =     0.19083731   -0.25731350   -0.06622883
     atom   14 type  2   force =    -0.03933823    0.04656656    0.05512491
     atom   15 type  1   force =    -0.02583449    0.03258293    0.01236562
     atom   16 type  1   force =    -0.09194549    0.24057641   -0.35585061
     atom   17 type  2   force =     0.03245485   -0.06959855    0.05965463
     atom   18 type  1   force =    -0.18576656    0.20499878    0.37101803
     atom   19 type  2   force =     0.04910588   -0.06727379   -0.05585771
     atom   20 type  1   force =    -0.00442974    0.00096938    0.03119692
     atom   21 type  1   force =     0.09247866   -0.23163078    0.36910905
     atom   22 type  2   force =    -0.03739528    0.07127041   -0.06028773
     atom   23 type  1   force =     0.18830973   -0.20474936   -0.35774796
     atom   24 type  2   force =    -0.05259627    0.06625809    0.04913936
     atom   25 type  1   force =    -0.12677004    0.14161207    0.08497711
     atom   26 type  2   force =     0.00405579   -0.00610472   -0.00406252
     atom   27 type  2   force =     0.01079582   -0.00634909   -0.02409865
     atom   28 type  2   force =     0.00641794   -0.00386719   -0.00411048
     atom   29 type  1   force =     0.08737458   -0.15960588    0.10494131
     atom   30 type  2   force =    -0.00107772    0.00518450   -0.00432724
     atom   31 type  2   force =    -0.00179915    0.00974775   -0.02697376
     atom   32 type  2   force =    -0.00513292    0.00471879   -0.00626473
     atom   33 type  1   force =    -0.06513415    0.12981213   -0.12304270
     atom   34 type  2   force =     0.00903586   -0.01654383    0.00473909
     atom   35 type  2   force =     0.01267125   -0.00384760    0.01368804
     atom   36 type  2   force =    -0.00411154   -0.01597552    0.01222378
     atom   37 type  4   force =     0.02020590    0.01367641   -0.09165377
     atom   38 type  3   force =     0.11173142   -0.19328648    0.10761548
     atom   39 type  2   force =    -0.03635108    0.07211814   -0.04337007
     atom   40 type  3   force =     0.03087741   -0.03580334   -0.09246756
     atom   41 type  2   force =     0.01226185    0.00526721   -0.09518208
     atom   42 type  2   force =     0.01226185   -0.00526721   -0.09518208
     atom   43 type  2   force =    -0.01226185   -0.00526721    0.09518208
     atom   44 type  1   force =    -0.02664904   -0.04081384   -0.00479916
     atom   45 type  1   force =    -0.02664904    0.04081384   -0.00479916
     atom   46 type  1   force =     0.02664904    0.04081384    0.00479916
     atom   47 type  1   force =     0.23927428    0.35779275    0.00348463
     atom   48 type  1   force =     0.23927428   -0.35779275    0.00348463
     atom   49 type  1   force =    -0.23927428   -0.35779275   -0.00348463
     atom   50 type  2   force =    -0.05746400   -0.07875083    0.02088682
     atom   51 type  2   force =    -0.05746400    0.07875083    0.02088682
     atom   52 type  2   force =     0.05746400    0.07875083   -0.02088682
     atom   53 type  1   force =    -0.00185754   -0.08677152   -0.40889323
     atom   54 type  1   force =    -0.00185754    0.08677152   -0.40889323
     atom   55 type  1   force =     0.00185754    0.08677152    0.40889323
     atom   56 type  2   force =    -0.01804641   -0.00901693    0.10603115
     atom   57 type  2   force =    -0.01804641    0.00901693    0.10603115
     atom   58 type  2   force =     0.01804641    0.00901693   -0.10603115
     atom   59 type  1   force =    -0.09666191   -0.14025024    0.00866453
     atom   60 type  1   force =    -0.09666191    0.14025024    0.00866453
     atom   61 type  1   force =     0.09666191    0.14025024   -0.00866453
     atom   62 type  1   force =    -0.00668638    0.00642215    0.07277348
     atom   63 type  1   force =    -0.00668638   -0.00642215    0.07277348
     atom   64 type  1   force =     0.00668638   -0.00642215   -0.07277348
     atom   65 type  1   force =     0.19632575    0.26264771   -0.05588499
     atom   66 type  1   force =     0.19632575   -0.26264771   -0.05588499
     atom   67 type  1   force =    -0.19632575   -0.26264771    0.05588499
     atom   68 type  2   force =    -0.04141072   -0.04842625    0.05150001
     atom   69 type  2   force =    -0.04141072    0.04842625    0.05150001
     atom   70 type  2   force =     0.04141072    0.04842625   -0.05150001
     atom   71 type  1   force =    -0.19083731   -0.25731350    0.06622883
     atom   72 type  1   force =    -0.19083731    0.25731350    0.06622883
     atom   73 type  1   force =     0.19083731    0.25731350   -0.06622883
     atom   74 type  2   force =     0.03933823    0.04656656   -0.05512491
     atom   75 type  2   force =     0.03933823   -0.04656656   -0.05512491
     atom   76 type  2   force =    -0.03933823   -0.04656656    0.05512491
     atom   77 type  1   force =     0.02583449    0.03258293   -0.01236562
     atom   78 type  1   force =     0.02583449   -0.03258293   -0.01236562
     atom   79 type  1   force =    -0.02583449   -0.03258293    0.01236562
     atom   80 type  1   force =     0.09194549    0.24057641    0.35585061
     atom   81 type  1   force =     0.09194549   -0.24057641    0.35585061
     atom   82 type  1   force =    -0.09194549   -0.24057641   -0.35585061
     atom   83 type  1   force =     0.06513415    0.12981213    0.12304270
     atom   84 type  1   force =     0.06513415   -0.12981213    0.12304270
     atom   85 type  1   force =    -0.06513415   -0.12981213   -0.12304270
     atom   86 type  2   force =    -0.03245485   -0.06959855   -0.05965463
     atom   87 type  2   force =    -0.03245485    0.06959855   -0.05965463
     atom   88 type  2   force =     0.03245485    0.06959855    0.05965463
     atom   89 type  1   force =     0.18576656    0.20499878   -0.37101803
     atom   90 type  1   force =     0.18576656   -0.20499878   -0.37101803
     atom   91 type  1   force =    -0.18576656   -0.20499878    0.37101803
     atom   92 type  2   force =    -0.04910588   -0.06727379    0.05585771
     atom   93 type  2   force =    -0.04910588    0.06727379    0.05585771
     atom   94 type  2   force =     0.04910588    0.06727379   -0.05585771
     atom   95 type  1   force =     0.00442974    0.00096938   -0.03119692
     atom   96 type  1   force =     0.00442974   -0.00096938   -0.03119692
     atom   97 type  1   force =    -0.00442974   -0.00096938    0.03119692
     atom   98 type  1   force =    -0.09247866   -0.23163078   -0.36910905
     atom   99 type  1   force =    -0.09247866    0.23163078   -0.36910905
     atom  100 type  1   force =     0.09247866    0.23163078    0.36910905
     atom  101 type  2   force =     0.03739528    0.07127041    0.06028773
     atom  102 type  2   force =     0.03739528   -0.07127041    0.06028773
     atom  103 type  2   force =    -0.03739528   -0.07127041   -0.06028773
     atom  104 type  1   force =    -0.18830973   -0.20474936    0.35774796
     atom  105 type  1   force =    -0.18830973    0.20474936    0.35774796
     atom  106 type  1   force =     0.18830973    0.20474936   -0.35774796
     atom  107 type  2   force =     0.05259627    0.06625809   -0.04913936
     atom  108 type  2   force =     0.05259627   -0.06625809   -0.04913936
     atom  109 type  2   force =    -0.05259627   -0.06625809    0.04913936
     atom  110 type  1   force =     0.12677004    0.14161207   -0.08497711
     atom  111 type  1   force =     0.12677004   -0.14161207   -0.08497711
     atom  112 type  1   force =    -0.12677004   -0.14161207    0.08497711
     atom  113 type  2   force =    -0.00405579   -0.00610472    0.00406252
     atom  114 type  2   force =    -0.00405579    0.00610472    0.00406252
     atom  115 type  2   force =     0.00405579    0.00610472   -0.00406252
     atom  116 type  2   force =    -0.01079582   -0.00634909    0.02409865
     atom  117 type  2   force =    -0.01079582    0.00634909    0.02409865
     atom  118 type  2   force =     0.01079582    0.00634909   -0.02409865
     atom  119 type  2   force =    -0.00641794   -0.00386719    0.00411048
     atom  120 type  2   force =    -0.00641794    0.00386719    0.00411048
     atom  121 type  2   force =     0.00641794    0.00386719   -0.00411048
     atom  122 type  1   force =    -0.08737458   -0.15960588   -0.10494131
     atom  123 type  1   force =    -0.08737458    0.15960588   -0.10494131
     atom  124 type  1   force =     0.08737458    0.15960588    0.10494131
     atom  125 type  2   force =     0.00107772    0.00518450    0.00432724
     atom  126 type  2   force =     0.00107772   -0.00518450    0.00432724
     atom  127 type  2   force =    -0.00107772   -0.00518450   -0.00432724
     atom  128 type  2   force =     0.00179915    0.00974775    0.02697376
     atom  129 type  2   force =     0.00179915   -0.00974775    0.02697376
     atom  130 type  2   force =    -0.00179915   -0.00974775   -0.02697376
     atom  131 type  2   force =     0.00513292    0.00471879    0.00626473
     atom  132 type  2   force =     0.00513292   -0.00471879    0.00626473
     atom  133 type  2   force =    -0.00513292   -0.00471879   -0.00626473
     atom  134 type  2   force =    -0.00903586   -0.01654383   -0.00473909
     atom  135 type  2   force =    -0.00903586    0.01654383   -0.00473909
     atom  136 type  2   force =     0.00903586    0.01654383    0.00473909
     atom  137 type  2   force =    -0.01267125   -0.00384760   -0.01368804
     atom  138 type  2   force =    -0.01267125    0.00384760   -0.01368804
     atom  139 type  2   force =     0.01267125    0.00384760    0.01368804
     atom  140 type  2   force =     0.00411154   -0.01597552   -0.01222378
     atom  141 type  2   force =     0.00411154    0.01597552   -0.01222378
     atom  142 type  2   force =    -0.00411154    0.01597552    0.01222378
     atom  143 type  4   force =    -0.02020590    0.01367641    0.09165377
     atom  144 type  4   force =    -0.02020590   -0.01367641    0.09165377
     atom  145 type  4   force =     0.02020590   -0.01367641   -0.09165377
     atom  146 type  3   force =    -0.11173142   -0.19328648   -0.10761548
     atom  147 type  3   force =    -0.11173142    0.19328648   -0.10761548
     atom  148 type  3   force =     0.11173142    0.19328648    0.10761548
     atom  149 type  2   force =     0.03635108    0.07211814    0.04337007
     atom  150 type  2   force =     0.03635108   -0.07211814    0.04337007
     atom  151 type  2   force =    -0.03635108   -0.07211814   -0.04337007
     atom  152 type  3   force =    -0.03087741   -0.03580334    0.09246756
     atom  153 type  3   force =    -0.03087741    0.03580334    0.09246756
     atom  154 type  3   force =     0.03087741    0.03580334   -0.09246756
     atom  155 type  1   force =     0.00230507   -0.00313105   -0.03996204
     atom  156 type  1   force =     0.00230507    0.00313105   -0.03996204
     atom  157 type  1   force =    -0.00230507    0.00313105    0.03996204
     atom  158 type  1   force =    -0.02728773    0.01019715    0.30436357
     atom  159 type  1   force =    -0.02728773   -0.01019715    0.30436357
     atom  160 type  1   force =     0.02728773   -0.01019715   -0.30436357

     Total force =     2.700579     Total SCF correction =     0.000247

     number of scf cycles    =   2
     number of bfgs steps    =   1

     energy   old            =   -1241.7731095096 Ry
     energy   new            =   -1242.4162477594 Ry

     CASE: energy  _new < energy  _old

[...]
     atom   38 type  3   force =     0.00047435   -0.00033442   -0.00061582
     atom   39 type  2   force =     0.00004791    0.00027184    0.00008172
     atom   40 type  3   force =     0.00032609   -0.00001583   -0.00085295
     atom   41 type  2   force =    -0.00040299    0.00047425    0.00026921
     atom   42 type  2   force =    -0.00040299   -0.00047425    0.00026921
     atom   43 type  2   force =     0.00040299   -0.00047425   -0.00026921
     atom   44 type  1   force =    -0.00022906   -0.00024133    0.00003193
     atom   45 type  1   force =    -0.00022906    0.00024133    0.00003193
     atom   46 type  1   force =     0.00022906    0.00024133   -0.00003193
     atom   47 type  1   force =    -0.00014795    0.00045472    0.00017653
     atom   48 type  1   force =    -0.00014795   -0.00045472    0.00017653
     atom   49 type  1   force =     0.00014795   -0.00045472   -0.00017653
     atom   50 type  2   force =    -0.00002782    0.00071192    0.00011311
     atom   51 type  2   force =    -0.00002782   -0.00071192    0.00011311
     atom   52 type  2   force =     0.00002782   -0.00071192   -0.00011311
     atom   53 type  1   force =    -0.00037780    0.00004827    0.00023354
     atom   54 type  1   force =    -0.00037780   -0.00004827    0.00023354
     atom   55 type  1   force =     0.00037780   -0.00004827   -0.00023354
     atom   56 type  2   force =     0.00007652    0.00024161   -0.00028191
     atom   57 type  2   force =     0.00007652   -0.00024161   -0.00028191
     atom   58 type  2   force =    -0.00007652   -0.00024161    0.00028191
     atom   59 type  1   force =     0.00009230    0.00004596   -0.00007676
     atom   60 type  1   force =     0.00009230   -0.00004596   -0.00007676
     atom   61 type  1   force =    -0.00009230   -0.00004596    0.00007676
     atom   62 type  1   force =    -0.00011736   -0.00016040    0.00034317
     atom   63 type  1   force =    -0.00011736    0.00016040    0.00034317
     atom   64 type  1   force =     0.00011736    0.00016040   -0.00034317
     atom   65 type  1   force =     0.00011643    0.00005516    0.00021874
     atom   66 type  1   force =     0.00011643   -0.00005516    0.00021874
     atom   67 type  1   force =    -0.00011643   -0.00005516   -0.00021874
     atom   68 type  2   force =    -0.00013644    0.00016797   -0.00003984
     atom   69 type  2   force =    -0.00013644   -0.00016797   -0.00003984
     atom   70 type  2   force =     0.00013644   -0.00016797    0.00003984
     atom   71 type  1   force =     0.00022988    0.00014144    0.00004805
     atom   72 type  1   force =     0.00022988   -0.00014144    0.00004805
     atom   73 type  1   force =    -0.00022988   -0.00014144   -0.00004805
     atom   74 type  2   force =     0.00013520   -0.00035910   -0.00068242
     atom   75 type  2   force =     0.00013520    0.00035910   -0.00068242
     atom   76 type  2   force =    -0.00013520    0.00035910    0.00068242
     atom   77 type  1   force =    -0.00033477   -0.00052575    0.00022390
     atom   78 type  1   force =    -0.00033477    0.00052575    0.00022390
     atom   79 type  1   force =     0.00033477    0.00052575   -0.00022390
     atom   80 type  1   force =    -0.00007891    0.00020427    0.00059243
     atom   81 type  1   force =    -0.00007891   -0.00020427    0.00059243
     atom   82 type  1   force =     0.00007891   -0.00020427   -0.00059243
     atom   83 type  1   force =     0.00015288    0.00014192    0.00015162
     atom   84 type  1   force =     0.00015288   -0.00014192    0.00015162
     atom   85 type  1   force =    -0.00015288   -0.00014192   -0.00015162
     atom   86 type  2   force =     0.00021123    0.00027437   -0.00061992
     atom   87 type  2   force =     0.00021123   -0.00027437   -0.00061992
     atom   88 type  2   force =    -0.00021123   -0.00027437    0.00061992
     atom   89 type  1   force =     0.00026631    0.00040193   -0.00014712
     atom   90 type  1   force =     0.00026631   -0.00040193   -0.00014712
     atom   91 type  1   force =    -0.00026631   -0.00040193    0.00014712
     atom   92 type  2   force =     0.00023917    0.00047688   -0.00069758
     atom   93 type  2   force =     0.00023917   -0.00047688   -0.00069758
     atom   94 type  2   force =    -0.00023917   -0.00047688    0.00069758
     atom   95 type  1   force =     0.00031736    0.00047352    0.00059760
     atom   96 type  1   force =     0.00031736   -0.00047352    0.00059760
     atom   97 type  1   force =    -0.00031736   -0.00047352   -0.00059760
     atom   98 type  1   force =     0.00036486    0.00010073   -0.00003913
     atom   99 type  1   force =     0.00036486   -0.00010073   -0.00003913
     atom  100 type  1   force =    -0.00036486   -0.00010073    0.00003913
     atom  101 type  2   force =    -0.00006515   -0.00051127   -0.00037680
     atom  102 type  2   force =    -0.00006515    0.00051127   -0.00037680
     atom  103 type  2   force =     0.00006515    0.00051127    0.00037680
     atom  104 type  1   force =     0.00030164   -0.00004956   -0.00079150
     atom  105 type  1   force =     0.00030164    0.00004956   -0.00079150
     atom  106 type  1   force =    -0.00030164    0.00004956    0.00079150
     atom  107 type  2   force =     0.00004073   -0.00044739    0.00023726
     atom  108 type  2   force =     0.00004073    0.00044739    0.00023726
     atom  109 type  2   force =    -0.00004073    0.00044739   -0.00023726
     atom  110 type  1   force =    -0.00020222   -0.00026808    0.00028274
     atom  111 type  1   force =    -0.00020222    0.00026808    0.00028274
     atom  112 type  1   force =     0.00020222    0.00026808   -0.00028274
     atom  113 type  2   force =     0.00043493   -0.00025900   -0.00005759
     atom  114 type  2   force =     0.00043493    0.00025900   -0.00005759
     atom  115 type  2   force =    -0.00043493    0.00025900    0.00005759
     atom  116 type  2   force =    -0.00030849   -0.00036037    0.00041917
     atom  117 type  2   force =    -0.00030849    0.00036037    0.00041917
     atom  118 type  2   force =     0.00030849    0.00036037   -0.00041917
     atom  119 type  2   force =    -0.00044054    0.00063561    0.00006881
     atom  120 type  2   force =    -0.00044054   -0.00063561    0.00006881
     atom  121 type  2   force =     0.00044054   -0.00063561   -0.00006881
     atom  122 type  1   force =     0.00026601    0.00008979    0.00024335
     atom  123 type  1   force =     0.00026601   -0.00008979    0.00024335
     atom  124 type  1   force =    -0.00026601   -0.00008979   -0.00024335
     atom  125 type  2   force =    -0.00024536   -0.00006862    0.00033042
     atom  126 type  2   force =    -0.00024536    0.00006862    0.00033042
     atom  127 type  2   force =     0.00024536    0.00006862   -0.00033042
     atom  128 type  2   force =     0.00051802    0.00030204    0.00015080
     atom  129 type  2   force =     0.00051802   -0.00030204    0.00015080
     atom  130 type  2   force =    -0.00051802   -0.00030204   -0.00015080
     atom  131 type  2   force =     0.00040028   -0.00054022    0.00026265
     atom  132 type  2   force =     0.00040028    0.00054022    0.00026265
     atom  133 type  2   force =    -0.00040028    0.00054022   -0.00026265
     atom  134 type  2   force =     0.00016333    0.00034499    0.00000027
     atom  135 type  2   force =     0.00016333   -0.00034499    0.00000027
     atom  136 type  2   force =    -0.00016333   -0.00034499   -0.00000027
     atom  137 type  2   force =     0.00055159   -0.00015989    0.00002144
     atom  138 type  2   force =     0.00055159    0.00015989    0.00002144
     atom  139 type  2   force =    -0.00055159    0.00015989   -0.00002144
     atom  140 type  2   force =    -0.00009226   -0.00017917    0.00048117
     atom  141 type  2   force =    -0.00009226    0.00017917    0.00048117
     atom  142 type  2   force =     0.00009226    0.00017917   -0.00048117
     atom  143 type  4   force =     0.00023840    0.00006979   -0.00023121
     atom  144 type  4   force =     0.00023840   -0.00006979   -0.00023121
     atom  145 type  4   force =    -0.00023840   -0.00006979    0.00023121
     atom  146 type  3   force =    -0.00047435   -0.00033442    0.00061582
     atom  147 type  3   force =    -0.00047435    0.00033442    0.00061582
     atom  148 type  3   force =     0.00047435    0.00033442   -0.00061582
     atom  149 type  2   force =    -0.00004791    0.00027184   -0.00008172
     atom  150 type  2   force =    -0.00004791   -0.00027184   -0.00008172
     atom  151 type  2   force =     0.00004791   -0.00027184    0.00008172
     atom  152 type  3   force =    -0.00032609   -0.00001583    0.00085295
     atom  153 type  3   force =    -0.00032609    0.00001583    0.00085295
     atom  154 type  3   force =     0.00032609    0.00001583   -0.00085295
     atom  155 type  1   force =    -0.00026899   -0.00067153   -0.00028404
     atom  156 type  1   force =    -0.00026899    0.00067153   -0.00028404
     atom  157 type  1   force =     0.00026899    0.00067153    0.00028404
     atom  158 type  1   force =    -0.00024165   -0.00045826    0.00043252
     atom  159 type  1   force =    -0.00024165    0.00045826    0.00043252
     atom  160 type  1   force =     0.00024165    0.00045826   -0.00043252

     Total force =     0.007360     Total SCF correction =     0.000036

     bfgs converged in  36 scf cycles and  35 bfgs steps
     (criteria: energy <  1.0E-04 Ry, force <  1.0E-03 Ry/Bohr)

     End of BFGS Geometry Optimization

     Final energy   =   -1244.7879739980 Ry
Begin final coordinates

ATOMIC_POSITIONS (angstrom)
C        0.759801919   3.290260856   7.271122643
C        0.265094002   4.216754171   6.348239504
H        0.491227396   4.059457400   5.293219542
C       -0.494429003   5.308821116   6.759566866
C       -0.787837045   5.451136237   8.129496813
H       -1.404027384   6.285628503   8.463148439
C       -0.303561506   4.542614605   9.054023352
H       -0.542898722   4.705792278  10.103456681
C        0.489525807   3.444253167   8.664968511
C        1.066973755   2.484814053   9.616212837
C        7.159087932   2.614471875   0.226790972
H        6.511069838   3.416824920   0.571906203
C        7.701530406   1.740841481   1.127854087
H        8.330018512   0.942807695   0.722326804
C        7.526585153   1.742526030   2.544853172
C        6.790308306   2.727633270   3.244043554
H        6.344627339   3.558198322   2.697064821
C       -2.553202280   2.658779122   4.605182659
H        6.019137876   3.435714566   5.094676401
C       -2.003740526   1.591981931   5.375044596
C       -1.247110211   0.607923015   4.680002610
H       -0.800427397  15.494927389   5.220494163
C       -1.071164453   0.694102359   3.315115624
H       -0.496035240  -0.074389733   2.797704886
C       -3.041508346   2.501856091   7.387689301
H       -2.638680734   3.520412760   7.274076466
H       -3.087894128   2.266026698   8.455046913
H       -4.067959678   2.481284609   6.985002719
C       -1.618482232   0.432525026   7.483522111
H       -2.054389804  15.178969857   7.199118152
H       -1.809186984   0.598363421   8.548640106
H       -0.529036746   0.389904728   7.334041199
C       -0.975992628   6.319272546   5.760563929
H       -1.462483998   7.172302238   6.250269091
H       -1.693449710   5.875751051   5.052192146
H       -0.134475162   6.707013990   5.165695995
N       -2.197245821   1.524852865   6.717190383
O        1.515240308   2.266075655   6.824108226
H        1.773574472   1.760815563   7.698471202
O        1.800141282   1.531305902   9.163963834
H       -0.836367396  11.918457400  10.911980458
H        2.330282604  11.658552600   5.510250458
H        3.657877396   3.799552600  -0.108510458
C        0.149299003  13.167821116   9.445643134
C        3.315939003  10.409178884   4.043903134
C        2.672210997   2.550178884   1.357826866
C        0.442707045  13.310136237   8.075713187
C        3.609347045  10.266863763   2.673973187
C        2.378802955   2.407863763   2.727756813
H        1.058887384  14.144628503   7.742051561
H        4.225537384   9.432371497   2.340321561
H        1.762622616   1.573371497   3.061418439
C       -0.041568494  12.401614605   7.151186648
C        3.125071506  11.175385395   1.749446648
C        2.863078494   3.316385395   3.652283352
H        0.197758722  12.564792278   6.101743319
H        3.364408722  11.012207722   0.700013319
H        2.623751278   3.153207722   4.701726681
C       -0.834665807  11.303253167   7.540241489
C        2.331984193  12.273746833   2.138501489
C        3.656175807   4.414746833   3.263228511
C       -1.412103755  10.343814053   6.588987163
C        1.754536245  13.233185947   1.187257163
C        4.233613755   5.374185947   4.214482837
C       -1.170937932  10.473471875   5.174949028
C       -4.337577932  13.103528125  10.576679028
C        3.992447932   5.244528125   5.628520972
H       -0.522909838  11.275824920   4.829833797
H       -3.689559838  12.301175080  10.231563797
H        3.344419838   4.442175080   5.973636203
C       -1.713370406   9.599841481   4.273875913
C       -4.880020406  13.977158519   9.675615913
C        4.534880406   6.118158519   6.529594087
H       -2.341858512   8.801807695   4.679413196
H       -5.508508512  14.775192305  10.081143196
H        5.163368512   6.916192305   6.124056804
C       -1.538425153   9.601526030   2.856876828
C       -4.705075153  13.975473970   8.258616828
C        4.359935153   6.116473970   7.946593172
C       -0.802158306  10.586633270   2.157696446
C       -3.968798306  12.990366730   7.559426446
C        3.623668306   5.131366730   8.645773554
C        0.630852628  14.178272546  10.444646071
C        3.797502628   9.398727454   5.042906071
C        2.190657372   1.539727454   0.358823929
H       -0.356477339  11.417198322   2.704675179
H       -3.523117339  12.159801678   8.106405179
H        3.177987339   4.300801678   8.098794821
C        8.541352280  10.517779122   0.796547341
C        5.374712280  13.059220878   6.198287341
C       -5.719842280   5.200220878  10.006922659
H       -0.030977876  11.294714566   0.307053599
H       -3.197627876  12.282285434   5.708793599
H        2.852487876   4.423285434  10.496416401
C        7.991900526   9.450981931   0.026685404
C        4.825250526  14.126018069   5.428425404
C       -5.170390526   6.267018069  10.776784596
C        7.235260211   8.466923015   0.721737390
C        4.068620211  15.110076985   6.123467390
C       -4.413750211   7.251076985  10.081732610
H        6.788577397   7.635927389   0.181245837
H        3.621937397   0.223072611   5.582975837
H       -3.967067397   8.082072611  10.622224163
C        7.059324453   8.553102359   2.086614376
C        3.892674453  15.023897641   7.488354376
C       -4.237814453   7.164897641   8.716855624
H        6.484185240   7.784610267   2.604025114
H        3.317545240  15.792389733   8.005765114
H       -3.662675240   7.933389733   8.199444886
C        2.696368346  10.360856091   8.817520699
C        5.863018346  13.216143909   3.415780699
C        0.125141654   5.357143909   1.985949301
H        2.293540734  11.379412760   8.931123534
H        5.460190734  12.197587240   3.529393534
H        0.527969266   4.338587240   1.872346466
H        2.742754128  10.125026698   7.750163087
H        5.909404128  13.451973302   2.348423087
H        0.078755872   5.592973302   3.053306913
H        3.722819678  10.340284609   9.220197281
H        6.889469678  13.236715391   3.818467281
H       -0.901309678   5.377715391   1.583272719
C        1.273342232   8.291525026   8.721687889
C        4.439992232  15.285474974   3.319947889
C        1.548167768   7.426474974   2.081782111
H        1.709259804   7.319969857   9.006091848
H        4.875899804   0.539030143   3.604351848
H        1.112250196   8.398030143   1.797378152
H        1.464046984   8.457363421   7.656559894
H        4.630696984  15.119636579   2.254829894
H        1.357463016   7.260636579   3.146910106
H        0.183906746   8.248904728   8.871158801
H        3.350546746  15.328095272   3.469428801
H        2.637603254   7.469095272   1.932311199
H        1.117353998  15.031302238   9.954940909
H        4.283993998   8.545697762   4.553200909
H        1.704156002   0.686697762   0.848529091
H        7.681609710  13.734751051   0.349547854
H        4.514959710   9.842248949   5.751277854
H       -4.860099710   1.983248949  10.453922146
H        6.122625162  14.566013990   0.236034005
H        2.955985162   9.010986010   5.637774005
H       -3.301115162   1.151986010  10.567435995
N        1.852115821   9.383852865   9.488019617
N        5.018755821  14.193147135   4.086279617
N        0.969394179   6.334147135   1.315450383
O       -1.860380308  10.125075655   9.381091774
O        1.306269692  13.451924345   3.979361774
O        4.681890308   5.592924345   1.422378226
H       -2.118704472   9.619815563   8.506728798
H        1.047935528  13.957184437   3.104998798
H        4.940214472   6.098184437   2.296741202
O       -2.145271282   9.390305902   7.041236166
O        1.021368718  14.186694098   1.639506166
O        4.966781282   6.327694098   3.762233834
C       -1.104931919  11.149260856   8.934077357
C        2.061708081  12.427739144   3.532347357
C        3.926441919   4.568739144   1.869392643
C       -0.610224002  12.075754171   9.856960496
C        2.556415998  11.501245829   4.455230496
C        3.431734002   3.642245829   0.946509504
End final coordinates



     Writing output data file 2hc_2_212.save
 
     init_run     :     63.45s CPU     64.19s WALL (       1 calls)
     electrons    :  48763.41s CPU  49315.11s WALL (      36 calls)
     update_pot   :     30.39s CPU     30.50s WALL (      35 calls)
     forces       :   1222.11s CPU   1240.73s WALL (      36 calls)

     Called by init_run:
     wfcinit      :     58.05s CPU     58.54s WALL (       1 calls)
     potinit      :      2.18s CPU      2.20s WALL (       1 calls)

     Called by electrons:
     c_bands      :  43347.30s CPU  43741.10s WALL (     394 calls)
     sum_band     :   4721.32s CPU   4799.97s WALL (     394 calls)
     v_of_rho     :    130.48s CPU    130.63s WALL (     430 calls)
     newd         :    237.09s CPU    319.42s WALL (     430 calls)
     mix_rho      :     22.17s CPU     23.59s WALL (     394 calls)

     Called by c_bands:
     init_us_2    :    339.11s CPU    339.25s WALL (    3300 calls)
     cegterg      :  42154.57s CPU  42547.32s WALL (    1576 calls)

     Called by sum_band:
     sum_band:bec :      1.54s CPU      1.54s WALL (    1576 calls)
     addusdens    :    242.95s CPU    319.70s WALL (     394 calls)

     Called by *egterg:
     h_psi        :  25167.64s CPU  25176.83s WALL (    8262 calls)
     s_psi        :   5336.39s CPU   5336.62s WALL (    8262 calls)
     g_psi        :    149.36s CPU    149.36s WALL (    6682 calls)
     cdiaghg      :   1192.44s CPU   1192.58s WALL (    8118 calls)

     Called by h_psi:
     h_psi:pot    :  24999.62s CPU  25008.58s WALL (    8262 calls)
     h_psi:calbec :   4957.22s CPU   4957.48s WALL (    8262 calls)
     vloc_psi     :  14708.25s CPU  14716.75s WALL (    8262 calls)
     add_vuspsi   :   5334.13s CPU   5334.30s WALL (    8262 calls)

     General routines
     calbec       :   7153.96s CPU   7154.30s WALL (   10414 calls)
     fft          :     57.20s CPU     57.30s WALL (    5591 calls)
     fftw         :  14663.71s CPU  14671.17s WALL ( 2384976 calls)
     davcio       :      0.00s CPU      1.50s WALL (       4 calls)
 
     Parallel routines
     fft_scatter  :   2229.89s CPU   2232.40s WALL ( 2390567 calls)
 
     PWSCF        :    13h55m CPU       14h 4m WALL

 
   This run was terminated on:  10:22:20  10Nov2017            

=------------------------------------------------------------------------------=
   JOB DONE.
=------------------------------------------------------------------------------=
