
     Program PWSCF v.6.1 (svn rev. 13369) starts on  9Nov2017 at 20:20:26 

     This program is part of the open-source Quantum ESPRESSO suite
     for quantum simulation of materials; please cite
         "P. Giannozzi et al., J. Phys.:Condens. Matter 21 395502 (2009);
          URL http://www.quantum-espresso.org", 
     in publications or presentations arising from this work. More details at
     http://www.quantum-espresso.org/quote

     Parallel version (MPI), running on     1 processors
     Waiting for input...
     Reading input from standard input

     Current dimensions of program PWSCF are:
     Max number of different atomic species (ntypx) = 10
     Max number of k-points (npk) =  40000
     Max angular momentum in pseudopotentials (lmaxx) =  3
     Message from routine iosys:
     london is obsolete, use "vdw_corr='grimme-d2'" instead

     IMPORTANT: XC functional enforced from input :
     Exchange-correlation      = PBE ( 1  4  3  4 0 0)
     Any further DFT definition will be discarded
     Please, verify this is what you really want

               file C.pbe-rrkjus.UPF: wavefunction(s)  2S 2P renormalized
               file H.pbe-rrkjus.UPF: wavefunction(s)  1S renormalized
               file O.pbe-rrkjus.UPF: wavefunction(s)  2S renormalized
               file N.pbe-rrkjus.UPF: wavefunction(s)  2S renormalized

     -------------------------------------
     Parameters for Dispersion Correction:
     -------------------------------------
       atom      VdW radius       C_6     

        C          2.744         60.710
        H          1.892          4.857
        O          2.536         24.284
        N          2.640         42.670

     Subspace diagonalization in iterative solution of the eigenvalue problem:
     a serial algorithm will be used

 
     G-vector sticks info
     --------------------
     sticks:   dense  smooth     PW     G-vecs:    dense   smooth      PW
     Sum        4907    4907   1337               232865   232865   33049
 


     bravais-lattice index     =            0
     lattice parameter (alat)  =      17.3001  a.u.
     unit-cell volume          =   10490.7385 (a.u.)^3
     number of atoms/cell      =          160
     number of atomic types    =            4
     number of electrons       =       432.00
     number of Kohn-Sham states=          216
     kinetic-energy cutoff     =      30.0000  Ry
     charge density cutoff     =     120.0000  Ry
     convergence threshold     =      1.0E-07
     mixing beta               =       0.7000
     number of iterations used =            8  plain     mixing
     Exchange-correlation      = PBE ( 1  4  3  4 0 0)
     nstep                     =           50


     celldm(1)=  17.300066  celldm(2)=   0.000000  celldm(3)=   0.000000
     celldm(4)=   0.000000  celldm(5)=   0.000000  celldm(6)=   0.000000

     crystal axes: (cart. coord. in units of alat)
               a(1) = (   1.000000   0.000000   0.000000 )  
               a(2) = (   0.000000   1.716913   0.000000 )  
               a(3) = (  -0.691800   0.000000   1.180088 )  

     reciprocal axes: (cart. coord. in units 2 pi/alat)
               b(1) = (  1.000000  0.000000  0.586227 )  
               b(2) = (  0.000000  0.582441  0.000000 )  
               b(3) = (  0.000000  0.000000  0.847394 )  


     PseudoPot. # 1 for C  read from file:
     /data/home/btx156/espresso/pseudo/C.pbe-rrkjus.UPF
     MD5 check sum: 00fb224312de0c5b6853bd333518df6f
     Pseudo is Ultrasoft, Zval =  4.0
     Generated by new atomic code, or converted to UPF format
     Using radial grid of  627 points,  4 beta functions with: 
                l(1) =   0
                l(2) =   0
                l(3) =   1
                l(4) =   1
     Q(r) pseudized with 0 coefficients 


     PseudoPot. # 2 for H  read from file:
     /data/home/btx156/espresso/pseudo/H.pbe-rrkjus.UPF
     MD5 check sum: 7cc9d459525c9a0585f487a71c3c9563
     Pseudo is Ultrasoft, Zval =  1.0
     Generated by new atomic code, or converted to UPF format
     Using radial grid of 1061 points,  2 beta functions with: 
                l(1) =   0
                l(2) =   0
     Q(r) pseudized with 0 coefficients 


     PseudoPot. # 3 for O  read from file:
     /data/home/btx156/espresso/pseudo/O.pbe-rrkjus.UPF
     MD5 check sum: 390ba29e75625707450f3bd3f0eb6be9
     Pseudo is Ultrasoft, Zval =  6.0
     Generated by new atomic code, or converted to UPF format
     Using radial grid of 1269 points,  4 beta functions with: 
                l(1) =   0
                l(2) =   0
                l(3) =   1
                l(4) =   1
     Q(r) pseudized with 0 coefficients 


     PseudoPot. # 4 for N  read from file:
     /data/home/btx156/espresso/pseudo/N.pbe-rrkjus.UPF
     MD5 check sum: 0c3fbe5807a93f9ba59d5a7019aa238b
     Pseudo is Ultrasoft, Zval =  5.0
     Generated by new atomic code, or converted to UPF format
     Using radial grid of 1257 points,  4 beta functions with: 
                l(1) =   0
                l(2) =   0
                l(3) =   1
                l(4) =   1
     Q(r) pseudized with 0 coefficients 


     atomic species   valence    mass     pseudopotential
        C              4.00    12.00000     C ( 1.00)
        H              1.00     1.00790     H ( 1.00)
        O              6.00    15.99940     O ( 1.00)
        N              5.00    14.00670     N ( 1.00)

      4 Sym. Ops., with inversion, found ( 2 have fractional translation)



   Cartesian axes

     site n.     atom                  positions (alat units)
         1           C   tau(   1) = (   0.0885623   0.3627671   0.7968541  )
         2           C   tau(   2) = (   0.0336698   0.4629145   0.6979038  )
         3           H   tau(   3) = (   0.0530115   0.4506903   0.5988945  )
         4           C   tau(   4) = (  -0.0488771   0.5802650   0.7426770  )
         5           C   tau(   5) = (  -0.0801011   0.5945504   0.8906125  )
         6           H   tau(   6) = (  -0.1375497   0.6720005   0.9225925  )
         7           C   tau(   7) = (  -0.0267750   0.4953805   0.9901887  )
         8           H   tau(   8) = (  -0.0481551   0.5080351   1.0887490  )
         9           C   tau(   9) = (   0.0591406   0.3755057   0.9471741  )
        10           C   tau(  10) = (   0.1204701   0.2707913   1.0506674  )
        11           C   tau(  11) = (   0.7839690   0.2828614   0.0264932  )
        12           H   tau(  12) = (   0.7248569   0.3583202   0.0599489  )
        13           C   tau(  13) = (   0.8402455   0.1891008   0.1230830  )
        14           H   tau(  14) = (   0.8975674   0.1146896   0.0844945  )
        15           C   tau(  15) = (   0.8232839   0.1887403   0.2802945  )
        16           C   tau(  16) = (   0.7461998   0.2951031   0.3565168  )
        17           H   tau(  17) = (   0.7063693   0.3730851   0.3050531  )
        18           C   tau(  18) = (  -0.2731179   0.2889227   0.5047822  )
        19           H   tau(  19) = (   0.6744604   0.3624405   0.5512190  )
        20           C   tau(  20) = (  -0.2153100   0.1739066   0.5880139  )
        21           C   tau(  21) = (  -0.1343492   0.0684701   0.5125125  )
        22           H   tau(  22) = (  -0.0920424   1.7086719   0.5638463  )
        23           C   tau(  23) = (  -0.1165585   0.0765576   0.3642930  )
        24           H   tau(  24) = (  -0.0622329   0.0044643   0.3176792  )
        25           C   tau(  25) = (  -0.3319909   0.2693155   0.8087145  )
        26           H   tau(  26) = (  -0.2966739   0.3669048   0.7938447  )
        27           H   tau(  27) = (  -0.3336774   0.2480939   0.9113820  )
        28           H   tau(  28) = (  -0.4288919   0.2607987   0.7696530  )
        29           C   tau(  29) = (  -0.1762005   0.0499454   0.8216957  )
        30           H   tau(  30) = (  -0.2194739   1.6760507   0.7923111  )
        31           H   tau(  31) = (  -0.1962260   0.0671309   0.9230644  )
        32           H   tau(  32) = (  -0.0724833   0.0456700   0.8068259  )
        33           C   tau(  33) = (  -0.1040809   0.6913837   0.6345338  )
        34           H   tau(  34) = (  -0.1547352   0.7678037   0.6856316  )
        35           H   tau(  35) = (  -0.1697481   0.6450441   0.5672685  )
        36           H   tau(  36) = (  -0.0231267   0.7322639   0.5819013  )
        37           N   tau(  37) = (  -0.2367501   0.1672784   0.7354666  )
        38           O   tau(  38) = (   0.1728721   0.2536909   0.7437857  )
        39           H   tau(  39) = (   0.1989262   0.2007067   0.8110739  )
        40           O   tau(  40) = (   0.2012201   0.1703860   1.0041836  )
        41           H   tau(  41) = (  -0.0907120   1.3091471   1.1712369  )
        42           H   tau(  42) = (   0.2551885   1.2662242   0.5811934  )
        43           H   tau(  43) = (   0.3989120   0.4077675   0.0088511  )
        44           C   tau(  44) = (   0.0111777   1.4387217   1.0274555  )
        45           C   tau(  45) = (   0.3570771   1.1366485   0.4374110  )
        46           C   tau(  46) = (   0.2970223   0.2781918   0.1526325  )
        47           C   tau(  47) = (   0.0424018   1.4530071   0.8795200  )
        48           C   tau(  48) = (   0.3883012   1.1223631   0.2894755  )
        49           C   tau(  49) = (   0.2657983   0.2639064   0.3005680  )
        50           H   tau(  50) = (   0.0998493   1.5304572   0.8475390  )
        51           H   tau(  51) = (   0.4457498   1.0449130   0.2574955  )
        52           H   tau(  52) = (   0.2083508   0.1864563   0.3325490  )
        53           C   tau(  53) = (  -0.0109243   1.3538373   0.7799438  )
        54           C   tau(  54) = (   0.3349751   1.2215329   0.1898993  )
        55           C   tau(  55) = (   0.3191244   0.3630762   0.4001442  )
        56           H   tau(  56) = (   0.0104546   1.3664918   0.6813824  )
        57           H   tau(  57) = (   0.3563551   1.2088783   0.0913390  )
        58           H   tau(  58) = (   0.2977454   0.3504216   0.4987056  )
        59           C   tau(  59) = (  -0.0968410   1.2339625   0.8229584  )
        60           C   tau(  60) = (   0.2490595   1.3414077   0.2329139  )
        61           C   tau(  61) = (   0.4050411   0.4829510   0.3571296  )
        62           C   tau(  62) = (  -0.1581695   1.1292480   0.7194641  )
        63           C   tau(  63) = (   0.1877299   1.4461222   0.1294206  )
        64           C   tau(  64) = (   0.4663695   0.5876655   0.4606239  )
        65           C   tau(  65) = (  -0.1298696   1.1413182   0.5635513  )
        66           C   tau(  66) = (  -0.4757690   1.4340520   1.1535948  )
        67           C   tau(  67) = (   0.4380696   0.5755953   0.6165367  )
        68           H   tau(  68) = (  -0.0707563   1.2167769   0.5300957  )
        69           H   tau(  69) = (  -0.4166568   1.3585932   1.1201391  )
        70           H   tau(  70) = (   0.3789564   0.5001365   0.6499923  )
        71           C   tau(  71) = (  -0.1861450   1.0475575   0.4669605  )
        72           C   tau(  72) = (  -0.5320455   1.5278127   1.0570050  )
        73           C   tau(  73) = (   0.4943450   0.6693559   0.7131275  )
        74           H   tau(  74) = (  -0.2434668   0.9731463   0.5055501  )
        75           H   tau(  75) = (  -0.5893673   1.6022239   1.0955935  )
        76           H   tau(  76) = (   0.5516669   0.7437672   0.6745379  )
        77           C   tau(  77) = (  -0.1691834   1.0471971   0.3097490  )
        78           C   tau(  78) = (  -0.5150839   1.5281731   0.8997935  )
        79           C   tau(  79) = (   0.4773834   0.6697164   0.8703390  )
        80           C   tau(  80) = (  -0.0921003   1.1535598   0.2335278  )
        81           C   tau(  81) = (  -0.4379997   1.4218104   0.8235712  )
        82           C   tau(  82) = (   0.4003004   0.5633536   0.9465602  )
        83           C   tau(  83) = (   0.0663805   1.5498405   1.1355988  )
        84           C   tau(  84) = (   0.4122810   1.0255297   0.5455542  )
        85           C   tau(  85) = (   0.2418196   0.1670730   0.0444892  )
        86           H   tau(  86) = (  -0.0522698   1.2315419   0.2849915  )
        87           H   tau(  87) = (  -0.3981692   1.3438283   0.8750349  )
        88           H   tau(  88) = (   0.3604699   0.4853716   0.8950965  )
        89           C   tau(  89) = (   0.9272174   1.1473795   0.0852613  )
        90           C   tau(  90) = (   0.5813180   1.4279907   0.6753058  )
        91           C   tau(  91) = (  -0.6190173   0.5695340   1.0948267  )
        92           H   tau(  92) = (  -0.0203598   1.2208972   0.0388244  )
        93           H   tau(  93) = (  -0.3662603   1.3544730   0.6288690  )
        94           H   tau(  94) = (   0.3285599   0.4960163   1.1412635  )
        95           C   tau(  95) = (   0.8694105   1.0323633   0.0020295  )
        96           C   tau(  96) = (   0.5235100   1.5430069   0.5920741  )
        97           C   tau(  97) = (  -0.5612105   0.6845502   1.1780585  )
        98           C   tau(  98) = (   0.7884486   0.9269268   0.0775320  )
        99           C   tau(  99) = (   0.4425492   1.6484434   0.6675754  )
       100           C   tau( 100) = (  -0.4802486   0.7899866   1.1025560  )
       101           H   tau( 101) = (   0.7461419   0.8502151   0.0261983  )
       102           H   tau( 102) = (   0.4002425   0.0082416   0.6162417  )
       103           H   tau( 103) = (  -0.4379418   0.8666983   1.1538897  )
       104           C   tau( 104) = (   0.7706591   0.9350144   0.2257504  )
       105           C   tau( 105) = (   0.4247586   1.6403558   0.8157950  )
       106           C   tau( 106) = (  -0.4624590   0.7818991   0.9543376  )
       107           H   tau( 107) = (   0.7163324   0.8629211   0.2723642  )
       108           H   tau( 108) = (   0.3704330   1.7124491   0.8624088  )
       109           H   tau( 109) = (  -0.4081323   0.8539924   0.9077238  )
       110           C   tau( 110) = (   0.2942904   1.1277723   0.9614180  )
       111           C   tau( 111) = (   0.6401909   1.4475979   0.3713735  )
       112           C   tau( 112) = (   0.0139096   0.5891412   0.2186700  )
       113           H   tau( 113) = (   0.2589734   1.2253615   0.9762867  )
       114           H   tau( 114) = (   0.6048739   1.3500087   0.3862433  )
       115           H   tau( 115) = (   0.0492266   0.4915520   0.2038013  )
       116           H   tau( 116) = (   0.2959770   1.1065506   0.8587506  )
       117           H   tau( 117) = (   0.6418775   1.4688196   0.2687060  )
       118           H   tau( 118) = (   0.0122231   0.6103628   0.3213374  )
       119           H   tau( 119) = (   0.3911915   1.1192554   1.0004784  )
       120           H   tau( 120) = (   0.7370920   1.4561148   0.4104349  )
       121           H   tau( 121) = (  -0.0829914   0.5976580   0.1796096  )
       122           C   tau( 122) = (   0.1385000   0.9084021   0.9484368  )
       123           C   tau( 123) = (   0.4844005   1.6669681   0.3583923  )
       124           C   tau( 124) = (   0.1697000   0.8085113   0.2316511  )
       125           H   tau( 125) = (   0.1817746   0.8175940   0.9778214  )
       126           H   tau( 126) = (   0.5276740   0.0408627   0.3877769  )
       127           H   tau( 127) = (   0.1264255   0.8993194   0.2022666  )
       128           H   tau( 128) = (   0.1585256   0.9255876   0.8470671  )
       129           H   tau( 129) = (   0.5044261   1.6497826   0.2570236  )
       130           H   tau( 130) = (   0.1496745   0.7913258   0.3330209  )
       131           H   tau( 131) = (   0.0347839   0.9041268   0.9633055  )
       132           H   tau( 132) = (   0.3806833   1.6712434   0.3732621  )
       133           H   tau( 133) = (   0.2734161   0.8127867   0.2167824  )
       134           H   tau( 134) = (   0.1170359   1.6262605   1.0845010  )
       135           H   tau( 135) = (   0.4629353   0.9491097   0.4944564  )
       136           H   tau( 136) = (   0.1911642   0.0906530   0.0955870  )
       137           H   tau( 137) = (   0.8238487   1.5035008   0.0227760  )
       138           H   tau( 138) = (   0.4779482   1.0718694   0.6128195  )
       139           H   tau( 139) = (  -0.5156486   0.2134126   1.1573120  )
       140           H   tau( 140) = (   0.6772261   1.5907206   0.0081422  )
       141           H   tau( 141) = (   0.3313267   0.9846495   0.5981867  )
       142           H   tau( 142) = (  -0.3690261   0.1261928   1.1719458  )
       143           N   tau( 143) = (   0.1990508   1.0257351   1.0346659  )
       144           N   tau( 144) = (   0.5449502   1.5496351   0.4446214  )
       145           N   tau( 145) = (   0.1091493   0.6911784   0.1454221  )
       146           O   tau( 146) = (  -0.2105726   1.1121477   1.0263457  )
       147           O   tau( 147) = (   0.1353279   1.4632225   0.4363022  )
       148           O   tau( 148) = (   0.5187726   0.6047658   0.1537423  )
       149           H   tau( 149) = (  -0.2366256   1.0591635   0.9590575  )
       150           H   tau( 150) = (   0.1092738   1.5162067   0.3690141  )
       151           H   tau( 151) = (   0.5448256   0.6577500   0.2210305  )
       152           O   tau( 152) = (  -0.2389195   1.0288427   0.7659479  )
       153           O   tau( 153) = (   0.1069799   1.5465274   0.1759044  )
       154           O   tau( 154) = (   0.5471195   0.6880707   0.4141401  )
       155           C   tau( 155) = (  -0.1262616   1.2212238   0.9732774  )
       156           C   tau( 156) = (   0.2196378   1.3541464   0.3832339  )
       157           C   tau( 157) = (   0.4344617   0.4956897   0.2068106  )
       158           C   tau( 158) = (  -0.0713691   1.3213712   1.0722276  )
       159           C   tau( 159) = (   0.2745303   1.2539989   0.4821842  )
       160           C   tau( 160) = (   0.3795692   0.3955422   0.1078604  )

     number of k points=    14
                       cart. coord. in units 2pi/alat
        k(    1) = (   0.0000000   0.0000000   0.0000000), wk =   0.0833333
        k(    2) = (   0.0000000   0.0000000   0.2824648), wk =   0.1666667
        k(    3) = (   0.0000000  -0.2912203   0.0000000), wk =   0.0833333
        k(    4) = (   0.0000000  -0.2912203   0.2824648), wk =   0.1666667
        k(    5) = (   0.2500000   0.0000000   0.1465568), wk =   0.1666667
        k(    6) = (   0.2500000   0.0000000   0.4290216), wk =   0.1666667
        k(    7) = (   0.2500000   0.0000000  -0.1359080), wk =   0.1666667
        k(    8) = (   0.2500000  -0.2912203   0.1465568), wk =   0.1666667
        k(    9) = (   0.2500000  -0.2912203   0.4290216), wk =   0.1666667
        k(   10) = (   0.2500000  -0.2912203  -0.1359080), wk =   0.1666667
        k(   11) = (  -0.5000000   0.0000000  -0.2931137), wk =   0.0833333
        k(   12) = (  -0.5000000   0.0000000  -0.0106489), wk =   0.1666667
        k(   13) = (  -0.5000000  -0.2912203  -0.2931137), wk =   0.0833333
        k(   14) = (  -0.5000000  -0.2912203  -0.0106489), wk =   0.1666667

     Dense  grid:   232865 G-vectors     FFT dimensions: (  64, 108,  90)

     Estimated max dynamical RAM per process >    2744.85MB

     Initial potential from superposition of free atoms

     starting charge  424.68464, renormalised to  432.00000
     Starting wfc are  412 randomized atomic wfcs

     total cpu time spent up to now is      222.5 secs

     per-process dynamical memory:  2026.4 Mb

     Self-consistent Calculation

     iteration #  1     ecut=    30.00 Ry     beta=0.70
     Davidson diagonalization with overlap
     ethr =  1.00E-02,  avg # of iterations =  2.0

     total cpu time spent up to now is      639.0 secs

     total energy              =   -1230.50901697 Ry
     Harris-Foulkes estimate   =   -1259.05224163 Ry
     estimated scf accuracy    <      42.51176094 Ry

     iteration #  2     ecut=    30.00 Ry     beta=0.70
     Davidson diagonalization with overlap
     ethr =  9.84E-03,  avg # of iterations =  3.0

     total cpu time spent up to now is     1060.8 secs

     total energy              =   -1235.81563744 Ry
     Harris-Foulkes estimate   =   -1246.99019204 Ry
     estimated scf accuracy    <      19.32424813 Ry

     iteration #  3     ecut=    30.00 Ry     beta=0.70
     Davidson diagonalization with overlap
     ethr =  4.47E-03,  avg # of iterations =  4.0

     total cpu time spent up to now is     1484.0 secs

     total energy              =   -1240.52016599 Ry
     Harris-Foulkes estimate   =   -1243.00490475 Ry
     estimated scf accuracy    <       5.04753481 Ry

     iteration #  4     ecut=    30.00 Ry     beta=0.70
     Davidson diagonalization with overlap
     ethr =  1.17E-03,  avg # of iterations =  4.0

     total cpu time spent up to now is     1867.7 secs

     total energy              =   -1241.62932328 Ry
     Harris-Foulkes estimate   =   -1241.91539372 Ry
     estimated scf accuracy    <       0.59106396 Ry

     iteration #  5     ecut=    30.00 Ry     beta=0.70
     Davidson diagonalization with overlap
     ethr =  1.37E-04,  avg # of iterations =  4.0

     total cpu time spent up to now is     2273.9 secs

     total energy              =   -1241.75662562 Ry
     Harris-Foulkes estimate   =   -1241.78758303 Ry
     estimated scf accuracy    <       0.06202092 Ry

     iteration #  6     ecut=    30.00 Ry     beta=0.70
     Davidson diagonalization with overlap
     ethr =  1.44E-05,  avg # of iterations =  3.9

     total cpu time spent up to now is     2683.9 secs

     total energy              =   -1241.77123862 Ry
     Harris-Foulkes estimate   =   -1241.77483813 Ry
     estimated scf accuracy    <       0.00769741 Ry

     iteration #  7     ecut=    30.00 Ry     beta=0.70
     Davidson diagonalization with overlap
     ethr =  1.78E-06,  avg # of iterations =  4.0

     total cpu time spent up to now is     3087.4 secs

     total energy              =   -1241.77294300 Ry
     Harris-Foulkes estimate   =   -1241.77361250 Ry
     estimated scf accuracy    <       0.00146531 Ry

     iteration #  8     ecut=    30.00 Ry     beta=0.70
     Davidson diagonalization with overlap
     ethr =  3.39E-07,  avg # of iterations =  4.0

     total cpu time spent up to now is     3489.8 secs

     total energy              =   -1241.77326185 Ry
     Harris-Foulkes estimate   =   -1241.77336234 Ry
     estimated scf accuracy    <       0.00021965 Ry

     iteration #  9     ecut=    30.00 Ry     beta=0.70
     Davidson diagonalization with overlap
     ethr =  5.08E-08,  avg # of iterations =  3.1

     total cpu time spent up to now is     3879.1 secs

     total energy              =   -1241.77331136 Ry
     Harris-Foulkes estimate   =   -1241.77333177 Ry
     estimated scf accuracy    <       0.00004622 Ry

     iteration # 10     ecut=    30.00 Ry     beta=0.70
     Davidson diagonalization with overlap
     ethr =  1.07E-08,  avg # of iterations =  3.7

     total cpu time spent up to now is     4262.4 secs

     total energy              =   -1241.77332099 Ry
     Harris-Foulkes estimate   =   -1241.77332398 Ry
     estimated scf accuracy    <       0.00000680 Ry

     iteration # 11     ecut=    30.00 Ry     beta=0.70
     Davidson diagonalization with overlap
     ethr =  1.57E-09,  avg # of iterations =  4.0

     total cpu time spent up to now is     4659.0 secs

     total energy              =   -1241.77332248 Ry
     Harris-Foulkes estimate   =   -1241.77332278 Ry
     estimated scf accuracy    <       0.00000069 Ry

     iteration # 12     ecut=    30.00 Ry     beta=0.70
     Davidson diagonalization with overlap
     ethr =  1.60E-10,  avg # of iterations =  5.0

     total cpu time spent up to now is     5070.7 secs

     total energy              =   -1241.77332264 Ry
     Harris-Foulkes estimate   =   -1241.77332274 Ry
     estimated scf accuracy    <       0.00000024 Ry

     iteration # 13     ecut=    30.00 Ry     beta=0.70
     Davidson diagonalization with overlap
     ethr =  5.64E-11,  avg # of iterations =  5.0

     total cpu time spent up to now is     5466.0 secs

     End of self-consistent calculation

          k = 0.0000 0.0000 0.0000 ( 29063 PWs)   bands (ev):

   -21.7966 -21.7964 -21.7960 -21.7959 -19.6904 -19.6898 -19.6895 -19.6889
   -18.2803 -18.2794 -18.2593 -18.2586 -15.8335 -15.8279 -15.8172 -15.8139
   -15.6559 -15.6461 -15.6324 -15.6260 -14.2871 -14.2756 -14.2505 -14.2370
   -13.8992 -13.8660 -13.8632 -13.8357 -13.4007 -13.3841 -13.3774 -13.3592
   -13.1556 -13.1542 -13.1122 -13.1075 -12.9426 -12.9406 -12.9084 -12.9037
   -12.8248 -12.8121 -12.8075 -12.7842 -12.1424 -12.1351 -12.0851 -12.0844
   -11.2946 -11.2781 -11.2764 -11.2747 -10.2713 -10.2610 -10.2073 -10.2040
    -9.9992  -9.9773  -9.9587  -9.9578  -9.8782  -9.8764  -9.7853  -9.7574
    -9.7509  -9.7138  -9.7087  -9.6649  -8.9154  -8.9029  -8.8907  -8.8450
    -8.2218  -8.2099  -8.1972  -8.1890  -7.8364  -7.8055  -7.7771  -7.7575
    -7.2909  -7.2710  -7.2634  -7.2353  -7.1684  -7.1325  -7.1170  -7.1071
    -6.4404  -6.4226  -6.4196  -6.4174  -6.4084  -6.3680  -6.3671  -6.3482
    -6.3422  -6.3284  -6.2243  -6.2165  -6.0727  -6.0311  -5.9768  -5.9446
    -5.8266  -5.8073  -5.7804  -5.7161  -5.5913  -5.5770  -5.3221  -5.3213
    -5.2647  -5.2066  -5.1581  -5.1547  -5.1480  -5.0989  -5.0768  -5.0418
    -5.0133  -5.0028  -4.9895  -4.9771  -4.9520  -4.9483  -4.9265  -4.9056
    -4.8752  -4.8624  -4.8417  -4.8295  -4.6352  -4.5962  -4.5851  -4.5793
    -4.5194  -4.5097  -4.4601  -4.3884  -4.3756  -4.3659  -4.3468  -4.3140
    -4.2842  -4.2741  -4.2476  -4.2359  -4.0068  -4.0032  -3.9972  -3.9468
    -3.8269  -3.8111  -3.7443  -3.7078  -3.6555  -3.6143  -3.6087  -3.5546
    -3.4603  -3.4544  -3.4499  -3.4214  -3.3768  -3.3219  -3.2969  -3.2842
    -3.1339  -3.0937  -3.0888  -3.0490  -3.0371  -3.0043  -2.9973  -2.9737
    -2.6153  -2.5762  -2.4630  -2.4519  -2.4139  -2.4023  -2.3798  -2.3664
    -2.3601  -2.3340  -2.3122  -2.2868  -2.1171  -2.0981  -1.9927  -1.9914
    -0.7034  -0.6969  -0.6897  -0.6821  -0.6186  -0.5899  -0.5772  -0.5368
    -0.4966  -0.3992  -0.3977  -0.3856   0.0399   0.0432   0.0588   0.0602
     0.0610   0.0726   0.0754   0.0837   1.1510   1.1813   1.1869   1.2052

          k = 0.0000 0.0000 0.2825 ( 29067 PWs)   bands (ev):

   -21.7964 -21.7963 -21.7962 -21.7960 -19.6903 -19.6899 -19.6894 -19.6890
   -18.2801 -18.2796 -18.2592 -18.2587 -15.8301 -15.8251 -15.8215 -15.8179
   -15.6529 -15.6465 -15.6310 -15.6282 -14.2658 -14.2568 -14.2522 -14.2449
   -13.8926 -13.8899 -13.8662 -13.8636 -13.3959 -13.3877 -13.3717 -13.3629
   -13.1535 -13.1471 -13.1340 -13.1251 -12.9296 -12.9116 -12.9111 -12.8899
   -12.8311 -12.8186 -12.8009 -12.7885 -12.1437 -12.1170 -12.1006 -12.0678
   -11.3005 -11.2896 -11.2717 -11.2657 -10.2694 -10.2682 -10.2367 -10.2226
    -9.9761  -9.9701  -9.9597  -9.9491  -9.8609  -9.8415  -9.7879  -9.7760
    -9.7572  -9.7350  -9.6973  -9.6887  -8.9145  -8.9088  -8.8715  -8.8507
    -8.2261  -8.2238  -8.1915  -8.1835  -7.8232  -7.7914  -7.7885  -7.7719
    -7.2832  -7.2770  -7.2570  -7.2464  -7.1461  -7.1296  -7.1143  -7.1138
    -6.4516  -6.4344  -6.4298  -6.4098  -6.3899  -6.3707  -6.3695  -6.3466
    -6.3412  -6.3339  -6.2206  -6.2194  -6.0637  -6.0142  -5.9721  -5.9521
    -5.8699  -5.7807  -5.7737  -5.7090  -5.5330  -5.5248  -5.3887  -5.3719
    -5.2634  -5.2130  -5.1964  -5.1662  -5.1343  -5.1034  -5.0859  -5.0597
    -4.9975  -4.9786  -4.9687  -4.9606  -4.9549  -4.9308  -4.9189  -4.9060
    -4.8868  -4.8823  -4.8442  -4.8390  -4.6142  -4.6047  -4.5903  -4.5702
    -4.5202  -4.5026  -4.4379  -4.4272  -4.3952  -4.3768  -4.3478  -4.3205
    -4.3049  -4.2433  -4.2309  -4.2305  -4.0416  -4.0009  -3.9771  -3.9475
    -3.7670  -3.7564  -3.7058  -3.6964  -3.6558  -3.6429  -3.5900  -3.5692
    -3.5278  -3.5116  -3.4703  -3.4583  -3.3820  -3.3714  -3.3000  -3.2811
    -3.1266  -3.1028  -3.0677  -3.0484  -3.0361  -3.0263  -2.9895  -2.9636
    -2.5508  -2.5305  -2.4628  -2.4415  -2.4153  -2.4059  -2.4038  -2.3995
    -2.3568  -2.3426  -2.3206  -2.2937  -2.0760  -2.0653  -1.9637  -1.9573
    -0.7232  -0.7005  -0.6713  -0.6517  -0.6446  -0.6074  -0.5979  -0.5857
    -0.4726  -0.4307  -0.4214  -0.4030   0.0460   0.0546   0.0710   0.0729
     0.0818   0.0889   0.1007   0.1105   1.1236   1.1410   1.1421   1.1522

          k = 0.0000-0.2912 0.0000 ( 29152 PWs)   bands (ev):

   -21.7966 -21.7965 -21.7960 -21.7960 -19.6903 -19.6901 -19.6892 -19.6891
   -18.2801 -18.2797 -18.2591 -18.2588 -15.8307 -15.8307 -15.8155 -15.8155
   -15.6517 -15.6516 -15.6286 -15.6284 -14.2816 -14.2816 -14.2440 -14.2440
   -13.8812 -13.8812 -13.8505 -13.8505 -13.3945 -13.3944 -13.3665 -13.3664
   -13.1549 -13.1549 -13.1097 -13.1097 -12.9409 -12.9407 -12.9069 -12.9067
   -12.8229 -12.8229 -12.7917 -12.7916 -12.1137 -12.1137 -12.1103 -12.1102
   -11.2864 -11.2862 -11.2751 -11.2749 -10.2427 -10.2426 -10.2328 -10.2328
    -9.9781  -9.9781  -9.9645  -9.9645  -9.8772  -9.8772  -9.7623  -9.7623
    -9.7528  -9.7527  -9.6762  -9.6761  -8.9134  -8.9133  -8.8638  -8.8637
    -8.2181  -8.2181  -8.1903  -8.1903  -7.8208  -7.8207  -7.7681  -7.7680
    -7.2792  -7.2792  -7.2571  -7.2571  -7.1420  -7.1419  -7.1142  -7.1141
    -6.4332  -6.4331  -6.4170  -6.4169  -6.3916  -6.3916  -6.3588  -6.3587
    -6.3301  -6.3301  -6.2240  -6.2238  -6.0463  -6.0463  -5.9659  -5.9658
    -5.8164  -5.8164  -5.7485  -5.7484  -5.5842  -5.5842  -5.3215  -5.3215
    -5.2394  -5.2394  -5.1481  -5.1480  -5.1238  -5.1238  -5.0627  -5.0627
    -5.0125  -5.0125  -4.9879  -4.9878  -4.9576  -4.9576  -4.9050  -4.9050
    -4.8662  -4.8661  -4.8386  -4.8385  -4.5926  -4.5926  -4.5734  -4.5733
    -4.5226  -4.5225  -4.4713  -4.4713  -4.3500  -4.3499  -4.3140  -4.3140
    -4.2805  -4.2805  -4.2521  -4.2521  -4.0167  -4.0166  -3.9614  -3.9613
    -3.8136  -3.8135  -3.7245  -3.7244  -3.6544  -3.6544  -3.5659  -3.5658
    -3.4546  -3.4546  -3.4303  -3.4303  -3.3413  -3.3413  -3.3099  -3.3099
    -3.1131  -3.1130  -3.0666  -3.0665  -3.0106  -3.0105  -2.9975  -2.9975
    -2.5938  -2.5938  -2.4575  -2.4575  -2.4087  -2.4087  -2.3727  -2.3726
    -2.3528  -2.3528  -2.2938  -2.2938  -2.1080  -2.1079  -1.9919  -1.9918
    -0.7103  -0.7103  -0.6635  -0.6635  -0.6298  -0.6298  -0.5487  -0.5486
    -0.4508  -0.4507  -0.3836  -0.3836   0.0467   0.0467   0.0517   0.0518
     0.0721   0.0722   0.0764   0.0764   1.1617   1.1618   1.2002   1.2003

          k = 0.0000-0.2912 0.2825 ( 29110 PWs)   bands (ev):

   -21.7964 -21.7964 -21.7962 -21.7961 -19.6902 -19.6900 -19.6893 -19.6891
   -18.2801 -18.2797 -18.2592 -18.2588 -15.8277 -15.8277 -15.8197 -15.8197
   -15.6500 -15.6498 -15.6295 -15.6293 -14.2614 -14.2614 -14.2487 -14.2487
   -13.8796 -13.8796 -13.8764 -13.8763 -13.3923 -13.3922 -13.3669 -13.3668
   -13.1505 -13.1505 -13.1297 -13.1297 -12.9237 -12.9235 -12.8972 -12.8971
   -12.8266 -12.8266 -12.7931 -12.7930 -12.1225 -12.1225 -12.0922 -12.0922
   -11.2952 -11.2952 -11.2684 -11.2684 -10.2549 -10.2548 -10.2435 -10.2434
    -9.9696  -9.9695  -9.9585  -9.9584  -9.8508  -9.8508  -9.7818  -9.7818
    -9.7462  -9.7461  -9.6932  -9.6932  -8.9124  -8.9123  -8.8605  -8.8604
    -8.2205  -8.2205  -8.1919  -8.1919  -7.8100  -7.8099  -7.7778  -7.7777
    -7.2701  -7.2701  -7.2614  -7.2614  -7.1344  -7.1343  -7.1180  -7.1179
    -6.4404  -6.4403  -6.4207  -6.4206  -6.3833  -6.3833  -6.3637  -6.3636
    -6.3292  -6.3291  -6.2201  -6.2199  -6.0407  -6.0407  -5.9605  -5.9604
    -5.8440  -5.8440  -5.7243  -5.7243  -5.5294  -5.5294  -5.3812  -5.3811
    -5.2411  -5.2410  -5.1777  -5.1775  -5.1087  -5.1087  -5.0857  -5.0857
    -4.9850  -4.9849  -4.9677  -4.9676  -4.9468  -4.9467  -4.9199  -4.9199
    -4.8695  -4.8693  -4.8457  -4.8456  -4.5903  -4.5902  -4.5753  -4.5752
    -4.5005  -4.5005  -4.4842  -4.4842  -4.3868  -4.3867  -4.3114  -4.3114
    -4.2714  -4.2714  -4.2386  -4.2385  -4.0235  -4.0235  -3.9610  -3.9610
    -3.7595  -3.7594  -3.7072  -3.7071  -3.6212  -3.6212  -3.6010  -3.6009
    -3.5196  -3.5195  -3.4623  -3.4622  -3.3445  -3.3444  -3.3289  -3.3289
    -3.1046  -3.1046  -3.0716  -3.0715  -3.0074  -3.0073  -2.9933  -2.9933
    -2.5400  -2.5399  -2.4526  -2.4526  -2.4093  -2.4093  -2.4014  -2.4014
    -2.3532  -2.3531  -2.3049  -2.3048  -2.0712  -2.0711  -1.9600  -1.9599
    -0.7162  -0.7161  -0.6610  -0.6610  -0.6244  -0.6243  -0.5885  -0.5884
    -0.4575  -0.4575  -0.4073  -0.4073   0.0488   0.0489   0.0735   0.0736
     0.0907   0.0907   0.0998   0.0998   1.1297   1.1298   1.1495   1.1497

          k = 0.2500 0.0000 0.1466 ( 29098 PWs)   bands (ev):

   -21.7966 -21.7964 -21.7961 -21.7960 -19.6904 -19.6898 -19.6895 -19.6889
   -18.2803 -18.2795 -18.2594 -18.2586 -15.8318 -15.8276 -15.8171 -15.8138
   -15.6559 -15.6476 -15.6324 -15.6277 -14.2721 -14.2623 -14.2532 -14.2429
   -13.8896 -13.8863 -13.8616 -13.8575 -13.4020 -13.3844 -13.3739 -13.3586
   -13.1583 -13.1555 -13.1188 -13.1140 -12.9348 -12.9315 -12.8987 -12.8969
   -12.8283 -12.8123 -12.8097 -12.7863 -12.1391 -12.1261 -12.0915 -12.0776
   -11.2977 -11.2846 -11.2767 -11.2677 -10.2846 -10.2540 -10.2363 -10.2063
    -9.9827  -9.9736  -9.9659  -9.9476  -9.8860  -9.8787  -9.7675  -9.7633
    -9.7471  -9.7220  -9.6966  -9.6759  -8.9168  -8.8972  -8.8845  -8.8474
    -8.2216  -8.2212  -8.1954  -8.1814  -7.8386  -7.8054  -7.7729  -7.7571
    -7.2858  -7.2773  -7.2555  -7.2456  -7.1662  -7.1315  -7.1234  -7.0940
    -6.4371  -6.4361  -6.4226  -6.4202  -6.3967  -6.3766  -6.3696  -6.3459
    -6.3457  -6.3226  -6.2209  -6.2167  -6.0438  -6.0409  -5.9634  -5.9548
    -5.8313  -5.8058  -5.7486  -5.7402  -5.6005  -5.5907  -5.3250  -5.3171
    -5.2343  -5.2005  -5.1941  -5.1778  -5.1299  -5.1254  -5.0676  -5.0635
    -5.0045  -4.9962  -4.9660  -4.9637  -4.9607  -4.9429  -4.9197  -4.9028
    -4.8884  -4.8808  -4.8449  -4.8233  -4.6169  -4.5913  -4.5844  -4.5763
    -4.5458  -4.5031  -4.4396  -4.4223  -4.3862  -4.3705  -4.3238  -4.3044
    -4.2891  -4.2796  -4.2465  -4.2403  -4.0121  -4.0033  -3.9875  -3.9476
    -3.8068  -3.7733  -3.7155  -3.7049  -3.6555  -3.6033  -3.5983  -3.5736
    -3.5143  -3.4803  -3.4649  -3.4648  -3.3715  -3.3534  -3.2975  -3.2834
    -3.1374  -3.1081  -3.0787  -3.0441  -3.0338  -3.0160  -2.9815  -2.9814
    -2.6045  -2.5740  -2.4497  -2.4350  -2.4100  -2.4034  -2.3750  -2.3712
    -2.3669  -2.3288  -2.3248  -2.2793  -2.0964  -2.0897  -1.9787  -1.9609
    -0.7340  -0.6858  -0.6747  -0.6602  -0.6481  -0.5948  -0.5558  -0.5485
    -0.4619  -0.4539  -0.4194  -0.3945   0.0458   0.0483   0.0682   0.0698
     0.0730   0.0812   0.0866   0.0969   1.1095   1.1455   1.1623   1.1887

          k = 0.2500 0.0000 0.4290 ( 29099 PWs)   bands (ev):

   -21.7964 -21.7963 -21.7962 -21.7961 -19.6903 -19.6899 -19.6894 -19.6891
   -18.2801 -18.2796 -18.2593 -18.2587 -15.8273 -15.8247 -15.8218 -15.8180
   -15.6521 -15.6492 -15.6306 -15.6304 -14.2581 -14.2542 -14.2508 -14.2471
   -13.9064 -13.8811 -13.8799 -13.8579 -13.3970 -13.3884 -13.3689 -13.3628
   -13.1535 -13.1458 -13.1361 -13.1292 -12.9211 -12.9153 -12.9009 -12.8951
   -12.8307 -12.8195 -12.8000 -12.7911 -12.1464 -12.1092 -12.1030 -12.0653
   -11.2867 -11.2839 -11.2833 -11.2758 -10.2918 -10.2529 -10.2434 -10.2213
    -9.9817  -9.9602  -9.9520  -9.9481  -9.8598  -9.8463  -9.7870  -9.7699
    -9.7515  -9.7464  -9.7000  -9.6908  -8.9193  -8.9021  -8.8656  -8.8541
    -8.2277  -8.2211  -8.2018  -8.1751  -7.8235  -7.7940  -7.7872  -7.7685
    -7.2821  -7.2764  -7.2563  -7.2486  -7.1457  -7.1419  -7.1209  -7.0932
    -6.4451  -6.4431  -6.4219  -6.4192  -6.3867  -6.3693  -6.3672  -6.3425
    -6.3417  -6.3409  -6.2189  -6.2177  -6.0619  -6.0134  -5.9636  -5.9578
    -5.8355  -5.8103  -5.7489  -5.7428  -5.5305  -5.5227  -5.4001  -5.3796
    -5.2508  -5.2144  -5.2003  -5.1595  -5.1327  -5.1143  -5.0600  -5.0436
    -4.9999  -4.9895  -4.9858  -4.9654  -4.9602  -4.9485  -4.9429  -4.8864
    -4.8864  -4.8807  -4.8504  -4.8252  -4.6223  -4.5896  -4.5786  -4.5653
    -4.5273  -4.5260  -4.4334  -4.4130  -4.3946  -4.3856  -4.3438  -4.3036
    -4.2848  -4.2760  -4.2385  -4.2280  -4.0363  -4.0074  -3.9642  -3.9614
    -3.7416  -3.7152  -3.7053  -3.6953  -3.6546  -3.6396  -3.6073  -3.6043
    -3.5428  -3.5404  -3.4721  -3.4623  -3.3996  -3.3476  -3.2952  -3.2918
    -3.1536  -3.0774  -3.0661  -3.0476  -3.0294  -3.0269  -2.9965  -2.9654
    -2.5354  -2.5320  -2.4483  -2.4338  -2.4178  -2.4141  -2.3978  -2.3973
    -2.3583  -2.3572  -2.3150  -2.2964  -2.0813  -2.0563  -1.9629  -1.9387
    -0.7296  -0.6995  -0.6793  -0.6492  -0.6261  -0.6064  -0.5822  -0.5788
    -0.4999  -0.4518  -0.4175  -0.4012   0.0393   0.0589   0.0698   0.0702
     0.0874   0.1007   0.1127   0.1129   1.0963   1.1231   1.1375   1.1552

          k = 0.2500 0.0000-0.1359 ( 29114 PWs)   bands (ev):

   -21.7964 -21.7963 -21.7962 -21.7961 -19.6903 -19.6899 -19.6894 -19.6890
   -18.2802 -18.2796 -18.2592 -18.2587 -15.8288 -15.8242 -15.8196 -15.8171
   -15.6542 -15.6487 -15.6328 -15.6283 -14.2790 -14.2664 -14.2571 -14.2443
   -13.8941 -13.8722 -13.8603 -13.8416 -13.3978 -13.3891 -13.3722 -13.3627
   -13.1458 -13.1444 -13.1245 -13.1183 -12.9372 -12.9274 -12.9155 -12.9082
   -12.8259 -12.8186 -12.7995 -12.7872 -12.1504 -12.1256 -12.0963 -12.0732
   -11.2953 -11.2793 -11.2776 -11.2702 -10.2758 -10.2603 -10.2118 -10.2060
    -9.9951  -9.9749  -9.9562  -9.9552  -9.8565  -9.8437  -9.7913  -9.7833
    -9.7635  -9.7222  -9.7013  -9.6783  -8.9173  -8.9130  -8.8758  -8.8518
    -8.2240  -8.2156  -8.1984  -8.1840  -7.8217  -7.7923  -7.7915  -7.7712
    -7.2884  -7.2760  -7.2606  -7.2410  -7.1539  -7.1413  -7.1112  -7.1044
    -6.4281  -6.4268  -6.4222  -6.4167  -6.3987  -6.3650  -6.3623  -6.3532
    -6.3406  -6.3262  -6.2177  -6.2136  -6.0813  -6.0362  -5.9724  -5.9683
    -5.8453  -5.7961  -5.7350  -5.7283  -5.5335  -5.5221  -5.4016  -5.3849
    -5.2635  -5.2119  -5.2048  -5.1542  -5.1404  -5.0818  -5.0524  -5.0476
    -5.0139  -4.9938  -4.9924  -4.9659  -4.9551  -4.9456  -4.9426  -4.8894
    -4.8798  -4.8663  -4.8383  -4.8354  -4.6312  -4.5966  -4.5770  -4.5769
    -4.5211  -4.5170  -4.4351  -4.4284  -4.3946  -4.3926  -4.3426  -4.2997
    -4.2716  -4.2630  -4.2593  -4.2367  -4.0389  -4.0050  -3.9639  -3.9453
    -3.8123  -3.7965  -3.7605  -3.7188  -3.6410  -3.6361  -3.5988  -3.5413
    -3.4765  -3.4753  -3.4246  -3.4111  -3.3732  -3.3305  -3.3005  -3.2883
    -3.1450  -3.1040  -3.0719  -3.0527  -3.0378  -3.0133  -2.9943  -2.9645
    -2.5459  -2.5167  -2.4588  -2.4432  -2.4268  -2.4124  -2.4079  -2.3962
    -2.3688  -2.3413  -2.3248  -2.3003  -2.1136  -2.0932  -1.9933  -1.9897
    -0.6959  -0.6943  -0.6806  -0.6791  -0.6244  -0.5952  -0.5555  -0.5395
    -0.5049  -0.4301  -0.4124  -0.3753   0.0355   0.0446   0.0469   0.0625
     0.0730   0.0773   0.0814   0.0946   1.1616   1.1719   1.1826   1.1900

          k = 0.2500-0.2912 0.1466 ( 29126 PWs)   bands (ev):

   -21.7966 -21.7965 -21.7961 -21.7960 -19.6903 -19.6901 -19.6892 -19.6890
   -18.2801 -18.2797 -18.2592 -18.2588 -15.8297 -15.8297 -15.8154 -15.8154
   -15.6522 -15.6521 -15.6297 -15.6296 -14.2674 -14.2673 -14.2482 -14.2482
   -13.8759 -13.8758 -13.8714 -13.8713 -13.3949 -13.3948 -13.3648 -13.3647
   -13.1570 -13.1570 -13.1163 -13.1163 -12.9330 -12.9328 -12.8981 -12.8980
   -12.8257 -12.8256 -12.7928 -12.7927 -12.1158 -12.1157 -12.1017 -12.1017
   -11.2919 -11.2919 -11.2712 -11.2712 -10.2614 -10.2614 -10.2301 -10.2300
    -9.9752  -9.9751  -9.9583  -9.9583  -9.8831  -9.8831  -9.7609  -9.7609
    -9.7416  -9.7416  -9.6836  -9.6836  -8.9105  -8.9105  -8.8626  -8.8625
    -8.2177  -8.2177  -8.1919  -8.1919  -7.8214  -7.8214  -7.7660  -7.7660
    -7.2715  -7.2715  -7.2623  -7.2623  -7.1492  -7.1492  -7.1066  -7.1065
    -6.4304  -6.4303  -6.4273  -6.4272  -6.3881  -6.3880  -6.3568  -6.3567
    -6.3340  -6.3339  -6.2190  -6.2188  -6.0395  -6.0395  -5.9619  -5.9618
    -5.8167  -5.8166  -5.7484  -5.7483  -5.5959  -5.5959  -5.3211  -5.3210
    -5.2174  -5.2173  -5.1826  -5.1825  -5.1006  -5.1006  -5.0930  -5.0930
    -4.9885  -4.9884  -4.9745  -4.9744  -4.9519  -4.9518  -4.9302  -4.9302
    -4.8611  -4.8610  -4.8422  -4.8421  -4.6007  -4.6007  -4.5792  -4.5792
    -4.4977  -4.4976  -4.4898  -4.4898  -4.3542  -4.3542  -4.3157  -4.3156
    -4.2678  -4.2678  -4.2559  -4.2559  -4.0178  -4.0177  -3.9597  -3.9597
    -3.7844  -3.7843  -3.7075  -3.7075  -3.6526  -3.6526  -3.5659  -3.5659
    -3.4956  -3.4956  -3.4625  -3.4625  -3.3487  -3.3487  -3.3173  -3.3172
    -3.1142  -3.1142  -3.0652  -3.0651  -3.0215  -3.0214  -2.9834  -2.9834
    -2.5888  -2.5887  -2.4414  -2.4414  -2.4075  -2.4075  -2.3727  -2.3727
    -2.3551  -2.3550  -2.2955  -2.2954  -2.0932  -2.0931  -1.9699  -1.9697
    -0.7174  -0.7174  -0.6716  -0.6715  -0.5983  -0.5982  -0.5674  -0.5673
    -0.4515  -0.4514  -0.4097  -0.4097   0.0494   0.0494   0.0644   0.0644
     0.0806   0.0807   0.0903   0.0904   1.1229   1.1230   1.1799   1.1801

          k = 0.2500-0.2912 0.4290 ( 29078 PWs)   bands (ev):

   -21.7964 -21.7963 -21.7962 -21.7961 -19.6902 -19.6900 -19.6893 -19.6891
   -18.2801 -18.2797 -18.2592 -18.2588 -15.8260 -15.8260 -15.8199 -15.8199
   -15.6507 -15.6506 -15.6306 -15.6305 -14.2547 -14.2547 -14.2506 -14.2505
   -13.8938 -13.8938 -13.8688 -13.8687 -13.3930 -13.3929 -13.3656 -13.3654
   -13.1499 -13.1499 -13.1327 -13.1327 -12.9181 -12.9179 -12.8979 -12.8978
   -12.8267 -12.8267 -12.7943 -12.7942 -12.1249 -12.1249 -12.0872 -12.0871
   -11.2859 -11.2858 -11.2789 -11.2788 -10.2724 -10.2723 -10.2315 -10.2315
    -9.9731  -9.9731  -9.9489  -9.9489  -9.8534  -9.8533  -9.7774  -9.7774
    -9.7484  -9.7483  -9.6965  -9.6965  -8.9113  -8.9112  -8.8593  -8.8592
    -8.2209  -8.2209  -8.1919  -8.1918  -7.8111  -7.8110  -7.7758  -7.7758
    -7.2684  -7.2684  -7.2615  -7.2614  -7.1459  -7.1458  -7.1070  -7.1070
    -6.4386  -6.4385  -6.4267  -6.4266  -6.3741  -6.3740  -6.3609  -6.3608
    -6.3375  -6.3373  -6.2176  -6.2173  -6.0384  -6.0383  -5.9635  -5.9634
    -5.8247  -5.8247  -5.7433  -5.7433  -5.5271  -5.5271  -5.3909  -5.3908
    -5.2380  -5.2379  -5.1703  -5.1702  -5.1047  -5.1047  -5.0721  -5.0721
    -4.9939  -4.9939  -4.9719  -4.9718  -4.9591  -4.9591  -4.9260  -4.9259
    -4.8673  -4.8672  -4.8415  -4.8414  -4.6115  -4.6115  -4.5703  -4.5702
    -4.5006  -4.5006  -4.4742  -4.4742  -4.3796  -4.3795  -4.3068  -4.3067
    -4.2650  -4.2649  -4.2501  -4.2500  -4.0198  -4.0197  -3.9665  -3.9665
    -3.7320  -3.7320  -3.6958  -3.6958  -3.6464  -3.6464  -3.5995  -3.5995
    -3.5434  -3.5433  -3.4682  -3.4681  -3.3591  -3.3590  -3.3175  -3.3175
    -3.1094  -3.1093  -3.0656  -3.0655  -3.0179  -3.0178  -2.9812  -2.9811
    -2.5341  -2.5341  -2.4398  -2.4398  -2.4120  -2.4120  -2.4030  -2.4030
    -2.3568  -2.3567  -2.3062  -2.3061  -2.0704  -2.0703  -1.9495  -1.9494
    -0.7171  -0.7171  -0.6637  -0.6636  -0.6209  -0.6208  -0.5715  -0.5714
    -0.4816  -0.4815  -0.4060  -0.4060   0.0478   0.0478   0.0700   0.0701
     0.1007   0.1007   0.1073   0.1074   1.1065   1.1066   1.1494   1.1496

          k = 0.2500-0.2912-0.1359 ( 29140 PWs)   bands (ev):

   -21.7964 -21.7964 -21.7962 -21.7961 -19.6902 -19.6900 -19.6893 -19.6891
   -18.2801 -18.2797 -18.2592 -18.2588 -15.8266 -15.8265 -15.8184 -15.8183
   -15.6518 -15.6517 -15.6303 -15.6302 -14.2729 -14.2729 -14.2509 -14.2509
   -13.8771 -13.8771 -13.8567 -13.8567 -13.3941 -13.3939 -13.3670 -13.3669
   -13.1452 -13.1452 -13.1215 -13.1215 -12.9321 -12.9320 -12.9120 -12.9119
   -12.8234 -12.8233 -12.7924 -12.7924 -12.1239 -12.1239 -12.0993 -12.0993
   -11.2872 -11.2872 -11.2734 -11.2734 -10.2473 -10.2472 -10.2331 -10.2330
    -9.9754  -9.9754  -9.9615  -9.9614  -9.8500  -9.8500  -9.7875  -9.7875
    -9.7476  -9.7475  -9.6857  -9.6857  -8.9157  -8.9156  -8.8635  -8.8634
    -8.2199  -8.2199  -8.1905  -8.1905  -7.8107  -7.8107  -7.7780  -7.7780
    -7.2779  -7.2779  -7.2606  -7.2605  -7.1336  -7.1335  -7.1162  -7.1161
    -6.4253  -6.4252  -6.4217  -6.4216  -6.3837  -6.3836  -6.3592  -6.3590
    -6.3296  -6.3295  -6.2185  -6.2183  -6.0529  -6.0529  -5.9790  -5.9790
    -5.8167  -5.8167  -5.7332  -5.7331  -5.5277  -5.5277  -5.3930  -5.3930
    -5.2444  -5.2443  -5.1714  -5.1713  -5.0974  -5.0974  -5.0567  -5.0567
    -5.0125  -5.0124  -4.9791  -4.9791  -4.9523  -4.9523  -4.9222  -4.9222
    -4.8628  -4.8627  -4.8389  -4.8388  -4.6123  -4.6122  -4.5732  -4.5731
    -4.5117  -4.5117  -4.4636  -4.4636  -4.3818  -4.3817  -4.3132  -4.3131
    -4.2684  -4.2684  -4.2481  -4.2481  -4.0207  -4.0206  -3.9600  -3.9600
    -3.8014  -3.8014  -3.7413  -3.7412  -3.6270  -3.6269  -3.5820  -3.5820
    -3.4654  -3.4653  -3.4158  -3.4158  -3.3450  -3.3450  -3.3154  -3.3154
    -3.1173  -3.1172  -3.0673  -3.0672  -3.0210  -3.0209  -2.9808  -2.9808
    -2.5303  -2.5302  -2.4503  -2.4503  -2.4206  -2.4206  -2.4028  -2.4028
    -2.3581  -2.3581  -2.3086  -2.3085  -2.1045  -2.1043  -1.9910  -1.9909
    -0.7013  -0.7013  -0.6712  -0.6711  -0.6104  -0.6103  -0.5605  -0.5604
    -0.4577  -0.4576  -0.3925  -0.3925   0.0407   0.0407   0.0549   0.0549
     0.0718   0.0719   0.0901   0.0902   1.1659   1.1661   1.1870   1.1872

          k =-0.5000 0.0000-0.2931 ( 29122 PWs)   bands (ev):

   -21.7966 -21.7965 -21.7961 -21.7960 -19.6904 -19.6898 -19.6895 -19.6889
   -18.2803 -18.2795 -18.2594 -18.2586 -15.8289 -15.8286 -15.8169 -15.8137
   -15.6558 -15.6491 -15.6325 -15.6295 -14.2552 -14.2549 -14.2495 -14.2474
   -13.9145 -13.8891 -13.8721 -13.8532 -13.4027 -13.3848 -13.3710 -13.3579
   -13.1605 -13.1571 -13.1255 -13.1201 -12.9288 -12.9206 -12.8943 -12.8840
   -12.8337 -12.8126 -12.8118 -12.7884 -12.1427 -12.1096 -12.0982 -12.0712
   -11.2983 -11.2954 -11.2715 -11.2637 -10.3030 -10.2696 -10.2302 -10.2113
    -9.9895  -9.9729  -9.9448  -9.9447  -9.8913  -9.8805  -9.7659  -9.7518
    -9.7511  -9.7212  -9.6910  -9.6854  -8.9181  -8.8915  -8.8786  -8.8499
    -8.2267  -8.2136  -8.2092  -8.1722  -7.8404  -7.8056  -7.7686  -7.7570
    -7.2828  -7.2775  -7.2546  -7.2476  -7.1594  -7.1538  -7.1125  -7.0852
    -6.4484  -6.4324  -6.4322  -6.4155  -6.3866  -6.3778  -6.3758  -6.3479
    -6.3390  -6.3244  -6.2172  -6.2154  -6.0520  -6.0168  -5.9653  -5.9463
    -5.8315  -5.8027  -5.7752  -5.7212  -5.6077  -5.6049  -5.3325  -5.3165
    -5.2237  -5.2167  -5.1766  -5.1659  -5.1397  -5.0952  -5.0685  -5.0626
    -5.0210  -4.9989  -4.9832  -4.9611  -4.9591  -4.9524  -4.9377  -4.8976
    -4.8871  -4.8819  -4.8467  -4.8163  -4.6000  -4.5983  -4.5830  -4.5715
    -4.5483  -4.5219  -4.4415  -4.3844  -4.3805  -4.3758  -4.3701  -4.3175
    -4.2853  -4.2678  -4.2415  -4.2250  -4.0251  -4.0025  -3.9722  -3.9519
    -3.7573  -3.7236  -3.7057  -3.6738  -3.6428  -3.6152  -3.6094  -3.5899
    -3.5589  -3.5319  -3.5082  -3.4942  -3.4027  -3.3285  -3.3099  -3.2888
    -3.1684  -3.0802  -3.0730  -3.0467  -3.0183  -3.0133  -3.0038  -2.9757
    -2.5846  -2.5814  -2.4338  -2.4170  -2.4124  -2.3912  -2.3804  -2.3717
    -2.3645  -2.3483  -2.3231  -2.2770  -2.0923  -2.0623  -1.9642  -1.9276
    -0.7450  -0.6915  -0.6807  -0.6524  -0.6282  -0.5626  -0.5613  -0.5552
    -0.5358  -0.4697  -0.4111  -0.3993   0.0354   0.0622   0.0685   0.0703
     0.0854   0.1050   0.1070   0.1116   1.0713   1.1100   1.1370   1.1699

          k =-0.5000 0.0000-0.0106 ( 29128 PWs)   bands (ev):

   -21.7964 -21.7963 -21.7962 -21.7961 -19.6903 -19.6899 -19.6894 -19.6890
   -18.2802 -18.2797 -18.2592 -18.2587 -15.8259 -15.8239 -15.8201 -15.8170
   -15.6534 -15.6515 -15.6324 -15.6306 -14.2685 -14.2629 -14.2575 -14.2500
   -13.8880 -13.8819 -13.8580 -13.8517 -13.3991 -13.3897 -13.3693 -13.3627
   -13.1467 -13.1418 -13.1256 -13.1241 -12.9368 -12.9230 -12.9186 -12.8985
   -12.8261 -12.8196 -12.7992 -12.7893 -12.1555 -12.1152 -12.1078 -12.0617
   -11.2903 -11.2836 -11.2796 -11.2718 -10.2838 -10.2556 -10.2237 -10.2058
    -9.9859  -9.9730  -9.9561  -9.9503  -9.8554  -9.8494  -9.7931  -9.7794
    -9.7525  -9.7357  -9.6946  -9.6878  -8.9219  -8.9065  -8.8700  -8.8551
    -8.2232  -8.2198  -8.2012  -8.1783  -7.8226  -7.7945  -7.7894  -7.7684
    -7.2835  -7.2813  -7.2523  -7.2517  -7.1592  -7.1315  -7.1242  -7.0905
    -6.4389  -6.4266  -6.4158  -6.4132  -6.3870  -6.3805  -6.3584  -6.3533
    -6.3349  -6.3337  -6.2146  -6.2135  -6.0737  -6.0317  -5.9824  -5.9496
    -5.8540  -5.7870  -5.7680  -5.7072  -5.5306  -5.5184  -5.4092  -5.3976
    -5.2346  -5.2180  -5.2043  -5.1879  -5.1279  -5.0931  -5.0714  -5.0385
    -5.0143  -4.9972  -4.9801  -4.9669  -4.9656  -4.9377  -4.9259  -4.9046
    -4.8790  -4.8770  -4.8393  -4.8253  -4.6058  -4.5961  -4.5932  -4.5734
    -4.5249  -4.5131  -4.4498  -4.4276  -4.3824  -4.3730  -4.3236  -4.3173
    -4.3085  -4.2613  -4.2547  -4.2352  -4.0295  -4.0098  -3.9608  -3.9533
    -3.8039  -3.7726  -3.7422  -3.7400  -3.6373  -3.6271  -3.5884  -3.5731
    -3.5099  -3.4815  -3.4330  -3.4077  -3.3630  -3.3388  -3.2995  -3.2942
    -3.1513  -3.1031  -3.0687  -3.0518  -3.0317  -3.0229  -2.9919  -2.9649
    -2.5357  -2.5109  -2.4422  -2.4308  -2.4239  -2.4210  -2.4145  -2.4056
    -2.3650  -2.3537  -2.3158  -2.3027  -2.1100  -2.0938  -1.9893  -1.9762
    -0.7159  -0.6917  -0.6806  -0.6423  -0.6264  -0.6126  -0.5350  -0.5229
    -0.5107  -0.4522  -0.4227  -0.3841   0.0370   0.0425   0.0555   0.0598
     0.0756   0.0845   0.0895   0.0968   1.1322   1.1619   1.1717   1.1933

          k =-0.5000-0.2912-0.2931 ( 29152 PWs)   bands (ev):

   -21.7966 -21.7965 -21.7961 -21.7960 -19.6903 -19.6901 -19.6892 -19.6891
   -18.2801 -18.2797 -18.2592 -18.2588 -15.8287 -15.8287 -15.8153 -15.8153
   -15.6527 -15.6526 -15.6309 -15.6307 -14.2527 -14.2526 -14.2510 -14.2510
   -13.9020 -13.9019 -13.8625 -13.8625 -13.3951 -13.3950 -13.3633 -13.3631
   -13.1589 -13.1589 -13.1227 -13.1227 -12.9253 -12.9251 -12.8888 -12.8886
   -12.8294 -12.8293 -12.7939 -12.7938 -12.1208 -12.1208 -12.0903 -12.0903
   -11.2976 -11.2976 -11.2669 -11.2668 -10.2859 -10.2858 -10.2200 -10.2199
    -9.9829  -9.9828  -9.9439  -9.9439  -9.8873  -9.8873  -9.7595  -9.7595
    -9.7341  -9.7341  -9.6887  -9.6886  -8.9077  -8.9076  -8.8615  -8.8614
    -8.2188  -8.2188  -8.1922  -8.1921  -7.8221  -7.8221  -7.7640  -7.7640
    -7.2675  -7.2674  -7.2616  -7.2616  -7.1584  -7.1584  -7.0995  -7.0995
    -6.4417  -6.4416  -6.4260  -6.4259  -6.3783  -6.3782  -6.3557  -6.3557
    -6.3382  -6.3380  -6.2153  -6.2151  -6.0322  -6.0321  -5.9605  -5.9605
    -5.8212  -5.8211  -5.7463  -5.7463  -5.6062  -5.6062  -5.3249  -5.3249
    -5.2209  -5.2208  -5.1659  -5.1658  -5.0946  -5.0946  -5.0593  -5.0592
    -5.0285  -5.0284  -4.9820  -4.9819  -4.9592  -4.9592  -4.9287  -4.9287
    -4.8594  -4.8594  -4.8378  -4.8377  -4.6110  -4.6109  -4.5837  -4.5836
    -4.5207  -4.5207  -4.4540  -4.4539  -4.3672  -4.3672  -4.3131  -4.3130
    -4.2702  -4.2702  -4.2428  -4.2428  -4.0181  -4.0181  -3.9595  -3.9594
    -3.7403  -3.7403  -3.6762  -3.6762  -3.6605  -3.6605  -3.5813  -3.5813
    -3.5237  -3.5236  -3.5196  -3.5196  -3.3676  -3.3676  -3.3085  -3.3084
    -3.1192  -3.1192  -3.0629  -3.0629  -3.0229  -3.0228  -2.9749  -2.9748
    -2.5837  -2.5837  -2.4233  -2.4233  -2.4020  -2.4020  -2.3774  -2.3774
    -2.3623  -2.3622  -2.2953  -2.2952  -2.0785  -2.0784  -1.9450  -1.9449
    -0.7243  -0.7243  -0.6692  -0.6691  -0.5953  -0.5952  -0.5465  -0.5464
    -0.5087  -0.5087  -0.4027  -0.4027   0.0470   0.0471   0.0683   0.0683
     0.1005   0.1005   0.1068   0.1068   1.0859   1.0860   1.1582   1.1583

          k =-0.5000-0.2912-0.0106 ( 29096 PWs)   bands (ev):

   -21.7964 -21.7963 -21.7962 -21.7961 -19.6902 -19.6900 -19.6893 -19.6891
   -18.2801 -18.2797 -18.2592 -18.2588 -15.8249 -15.8249 -15.8186 -15.8185
   -15.6525 -15.6524 -15.6315 -15.6314 -14.2633 -14.2632 -14.2566 -14.2566
   -13.8729 -13.8729 -13.8667 -13.8667 -13.3948 -13.3947 -13.3657 -13.3655
   -13.1445 -13.1445 -13.1248 -13.1248 -12.9323 -12.9322 -12.9061 -12.9059
   -12.8238 -12.8237 -12.7935 -12.7934 -12.1321 -12.1320 -12.0885 -12.0885
   -11.2851 -11.2850 -11.2772 -11.2771 -10.2559 -10.2558 -10.2308 -10.2307
    -9.9713  -9.9712  -9.9584  -9.9583  -9.8531  -9.8531  -9.7862  -9.7862
    -9.7440  -9.7439  -9.6915  -9.6915  -8.9145  -8.9145  -8.8623  -8.8622
    -8.2198  -8.2198  -8.1909  -8.1909  -7.8117  -7.8117  -7.7762  -7.7761
    -7.2742  -7.2742  -7.2640  -7.2640  -7.1419  -7.1419  -7.1070  -7.1069
    -6.4328  -6.4327  -6.4150  -6.4149  -6.3783  -6.3782  -6.3581  -6.3580
    -6.3370  -6.3368  -6.2149  -6.2147  -6.0525  -6.0525  -5.9691  -5.9691
    -5.8286  -5.8286  -5.7281  -5.7281  -5.5249  -5.5249  -5.4032  -5.4032
    -5.2205  -5.2204  -5.1994  -5.1993  -5.0910  -5.0909  -5.0573  -5.0572
    -5.0047  -5.0046  -4.9808  -4.9807  -4.9545  -4.9545  -4.9305  -4.9305
    -4.8601  -4.8600  -4.8392  -4.8391  -4.6239  -4.6239  -4.5718  -4.5718
    -4.5041  -4.5041  -4.4601  -4.4600  -4.3812  -4.3811  -4.3103  -4.3102
    -4.2789  -4.2789  -4.2431  -4.2431  -4.0171  -4.0170  -3.9645  -3.9645
    -3.7840  -3.7839  -3.7404  -3.7403  -3.6372  -3.6372  -3.5771  -3.5770
    -3.4903  -3.4903  -3.4149  -3.4148  -3.3484  -3.3484  -3.3177  -3.3176
    -3.1192  -3.1191  -3.0630  -3.0629  -3.0289  -3.0288  -2.9733  -2.9732
    -2.5239  -2.5239  -2.4351  -2.4351  -2.4241  -2.4241  -2.4079  -2.4079
    -2.3593  -2.3593  -2.3105  -2.3104  -2.1034  -2.1033  -1.9821  -1.9820
    -0.7028  -0.7028  -0.6742  -0.6741  -0.5885  -0.5884  -0.5671  -0.5671
    -0.4581  -0.4580  -0.4079  -0.4078   0.0446   0.0447   0.0518   0.0519
     0.0789   0.0789   0.0952   0.0952   1.1430   1.1431   1.1866   1.1867

     highest occupied level (ev):     1.2052

!    total energy              =   -1241.77332269 Ry
     Harris-Foulkes estimate   =   -1241.77332270 Ry
     estimated scf accuracy    <       0.00000002 Ry

     The total energy is the sum of the following terms:

     one-electron contribution =   -1212.45783343 Ry
     hartree contribution      =     747.03273237 Ry
     xc contribution           =    -392.02441879 Ry
     ewald contribution        =    -383.67302835 Ry
     Dispersion Correction     =      -0.65077449 Ry

     convergence has been achieved in  13 iterations

     Forces acting on atoms (cartesian axes, Ry/au):

     atom    1 type  1   force =     0.00733196   -0.01026588    0.00188614
     atom    2 type  1   force =    -0.05493549    0.03342976    0.28302838
     atom    3 type  2   force =     0.06815225   -0.04454530   -0.32401313
     atom    4 type  1   force =    -0.00818112    0.01156867    0.00213789
     atom    5 type  1   force =     0.17196074   -0.23234458   -0.09079861
     atom    6 type  2   force =    -0.18811251    0.25485171    0.10647413
     atom    7 type  1   force =     0.07048882   -0.05425179   -0.29766687
     atom    8 type  2   force =    -0.07090436    0.04246231    0.32206548
     atom    9 type  1   force =    -0.01086178    0.01586459    0.00348011
     atom   10 type  1   force =     0.00271385   -0.00373795    0.02263238
     atom   11 type  1   force =     0.14994279   -0.18475751   -0.12626299
     atom   12 type  2   force =    -0.19714336    0.25280778    0.10382733
     atom   13 type  1   force =    -0.15506121    0.19676953    0.16013571
     atom   14 type  2   force =     0.19446808   -0.25402793   -0.12296958
     atom   15 type  1   force =     0.00005071    0.00096294   -0.03076139
     atom   16 type  1   force =     0.11154822   -0.22171831    0.15447513
     atom   17 type  2   force =    -0.13486592    0.25911539   -0.16625788
     atom   18 type  1   force =     0.15046749   -0.21316997   -0.13787216
     atom   19 type  2   force =    -0.17351693    0.24330658    0.14940772
     atom   20 type  1   force =    -0.00757572    0.00309005    0.03250287
     atom   21 type  1   force =    -0.12192801    0.22137573   -0.14446416
     atom   22 type  2   force =     0.14002841   -0.25449533    0.16614859
     atom   23 type  1   force =    -0.15655128    0.20921472    0.13275402
     atom   24 type  2   force =     0.17940196   -0.24020884   -0.15479223
     atom   25 type  1   force =     0.13747300   -0.14021840   -0.11468640
     atom   26 type  2   force =     0.08408333    0.24259972   -0.03282342
     atom   27 type  2   force =    -0.00238376   -0.05168859    0.24404664
     atom   28 type  2   force =    -0.24304443   -0.01829995   -0.09385571
     atom   29 type  1   force =    -0.08164000    0.16425547   -0.13765049
     atom   30 type  2   force =    -0.10584385   -0.22969951   -0.06855574
     atom   31 type  2   force =    -0.04852697    0.04325199    0.24394979
     atom   32 type  2   force =     0.25533790   -0.01255290   -0.03369377
     atom   33 type  1   force =     0.08127284   -0.16807409    0.17128879
     atom   34 type  2   force =    -0.12186194    0.18522585    0.11888953
     atom   35 type  2   force =    -0.16174797   -0.11177683   -0.16840937
     atom   36 type  2   force =     0.19675805    0.09980518   -0.13076015
     atom   37 type  4   force =     0.00888703    0.00152336   -0.02382673
     atom   38 type  3   force =    -0.16586004    0.33877617   -0.45284606
     atom   39 type  2   force =     0.17152949   -0.34474104    0.43868921
     atom   40 type  3   force =     0.01937963   -0.03162143   -0.01410608
     atom   41 type  2   force =    -0.06815225   -0.04454530    0.32401313
     atom   42 type  2   force =    -0.06815225    0.04454530    0.32401313
     atom   43 type  2   force =     0.06815225    0.04454530   -0.32401313
     atom   44 type  1   force =     0.00818112    0.01156867   -0.00213789
     atom   45 type  1   force =     0.00818112   -0.01156867   -0.00213789
     atom   46 type  1   force =    -0.00818112   -0.01156867    0.00213789
     atom   47 type  1   force =    -0.17196074   -0.23234458    0.09079861
     atom   48 type  1   force =    -0.17196074    0.23234458    0.09079861
     atom   49 type  1   force =     0.17196074    0.23234458   -0.09079861
     atom   50 type  2   force =     0.18811251    0.25485171   -0.10647413
     atom   51 type  2   force =     0.18811251   -0.25485171   -0.10647413
     atom   52 type  2   force =    -0.18811251   -0.25485171    0.10647413
     atom   53 type  1   force =    -0.07048882   -0.05425179    0.29766687
     atom   54 type  1   force =    -0.07048882    0.05425179    0.29766687
     atom   55 type  1   force =     0.07048882    0.05425179   -0.29766687
     atom   56 type  2   force =     0.07090436    0.04246231   -0.32206548
     atom   57 type  2   force =     0.07090436   -0.04246231   -0.32206548
     atom   58 type  2   force =    -0.07090436   -0.04246231    0.32206548
     atom   59 type  1   force =     0.01086178    0.01586459   -0.00348011
     atom   60 type  1   force =     0.01086178   -0.01586459   -0.00348011
     atom   61 type  1   force =    -0.01086178   -0.01586459    0.00348011
     atom   62 type  1   force =    -0.00271385   -0.00373795   -0.02263238
     atom   63 type  1   force =    -0.00271385    0.00373795   -0.02263238
     atom   64 type  1   force =     0.00271385    0.00373795    0.02263238
     atom   65 type  1   force =    -0.14994279   -0.18475751    0.12626299
     atom   66 type  1   force =    -0.14994279    0.18475751    0.12626299
     atom   67 type  1   force =     0.14994279    0.18475751   -0.12626299
     atom   68 type  2   force =     0.19714336    0.25280778   -0.10382733
     atom   69 type  2   force =     0.19714336   -0.25280778   -0.10382733
     atom   70 type  2   force =    -0.19714336   -0.25280778    0.10382733
     atom   71 type  1   force =     0.15506121    0.19676953   -0.16013571
     atom   72 type  1   force =     0.15506121   -0.19676953   -0.16013571
     atom   73 type  1   force =    -0.15506121   -0.19676953    0.16013571
     atom   74 type  2   force =    -0.19446808   -0.25402793    0.12296958
     atom   75 type  2   force =    -0.19446808    0.25402793    0.12296958
     atom   76 type  2   force =     0.19446808    0.25402793   -0.12296958
     atom   77 type  1   force =    -0.00005071    0.00096294    0.03076139
     atom   78 type  1   force =    -0.00005071   -0.00096294    0.03076139
     atom   79 type  1   force =     0.00005071   -0.00096294   -0.03076139
     atom   80 type  1   force =    -0.11154822   -0.22171831   -0.15447513
     atom   81 type  1   force =    -0.11154822    0.22171831   -0.15447513
     atom   82 type  1   force =     0.11154822    0.22171831    0.15447513
     atom   83 type  1   force =    -0.08127284   -0.16807409   -0.17128879
     atom   84 type  1   force =    -0.08127284    0.16807409   -0.17128879
     atom   85 type  1   force =     0.08127284    0.16807409    0.17128879
     atom   86 type  2   force =     0.13486592    0.25911539    0.16625788
     atom   87 type  2   force =     0.13486592   -0.25911539    0.16625788
     atom   88 type  2   force =    -0.13486592   -0.25911539   -0.16625788
     atom   89 type  1   force =    -0.15046749   -0.21316997    0.13787216
     atom   90 type  1   force =    -0.15046749    0.21316997    0.13787216
     atom   91 type  1   force =     0.15046749    0.21316997   -0.13787216
     atom   92 type  2   force =     0.17351693    0.24330658   -0.14940772
     atom   93 type  2   force =     0.17351693   -0.24330658   -0.14940772
     atom   94 type  2   force =    -0.17351693   -0.24330658    0.14940772
     atom   95 type  1   force =     0.00757572    0.00309005   -0.03250287
     atom   96 type  1   force =     0.00757572   -0.00309005   -0.03250287
     atom   97 type  1   force =    -0.00757572   -0.00309005    0.03250287
     atom   98 type  1   force =     0.12192801    0.22137573    0.14446416
     atom   99 type  1   force =     0.12192801   -0.22137573    0.14446416
     atom  100 type  1   force =    -0.12192801   -0.22137573   -0.14446416
     atom  101 type  2   force =    -0.14002841   -0.25449533   -0.16614859
     atom  102 type  2   force =    -0.14002841    0.25449533   -0.16614859
     atom  103 type  2   force =     0.14002841    0.25449533    0.16614859
     atom  104 type  1   force =     0.15655128    0.20921472   -0.13275402
     atom  105 type  1   force =     0.15655128   -0.20921472   -0.13275402
     atom  106 type  1   force =    -0.15655128   -0.20921472    0.13275402
     atom  107 type  2   force =    -0.17940196   -0.24020884    0.15479223
     atom  108 type  2   force =    -0.17940196    0.24020884    0.15479223
     atom  109 type  2   force =     0.17940196    0.24020884   -0.15479223
     atom  110 type  1   force =    -0.13747300   -0.14021840    0.11468640
     atom  111 type  1   force =    -0.13747300    0.14021840    0.11468640
     atom  112 type  1   force =     0.13747300    0.14021840   -0.11468640
     atom  113 type  2   force =    -0.08408333    0.24259972    0.03282342
     atom  114 type  2   force =    -0.08408333   -0.24259972    0.03282342
     atom  115 type  2   force =     0.08408333   -0.24259972   -0.03282342
     atom  116 type  2   force =     0.00238376   -0.05168859   -0.24404664
     atom  117 type  2   force =     0.00238376    0.05168859   -0.24404664
     atom  118 type  2   force =    -0.00238376    0.05168859    0.24404664
     atom  119 type  2   force =     0.24304443   -0.01829995    0.09385571
     atom  120 type  2   force =     0.24304443    0.01829995    0.09385571
     atom  121 type  2   force =    -0.24304443    0.01829995   -0.09385571
     atom  122 type  1   force =     0.08164000    0.16425547    0.13765049
     atom  123 type  1   force =     0.08164000   -0.16425547    0.13765049
     atom  124 type  1   force =    -0.08164000   -0.16425547   -0.13765049
     atom  125 type  2   force =     0.10584385   -0.22969951    0.06855574
     atom  126 type  2   force =     0.10584385    0.22969951    0.06855574
     atom  127 type  2   force =    -0.10584385    0.22969951   -0.06855574
     atom  128 type  2   force =     0.04852697    0.04325199   -0.24394979
     atom  129 type  2   force =     0.04852697   -0.04325199   -0.24394979
     atom  130 type  2   force =    -0.04852697   -0.04325199    0.24394979
     atom  131 type  2   force =    -0.25533790   -0.01255290    0.03369377
     atom  132 type  2   force =    -0.25533790    0.01255290    0.03369377
     atom  133 type  2   force =     0.25533790    0.01255290   -0.03369377
     atom  134 type  2   force =     0.12186194    0.18522585   -0.11888953
     atom  135 type  2   force =     0.12186194   -0.18522585   -0.11888953
     atom  136 type  2   force =    -0.12186194   -0.18522585    0.11888953
     atom  137 type  2   force =     0.16174797   -0.11177683    0.16840937
     atom  138 type  2   force =     0.16174797    0.11177683    0.16840937
     atom  139 type  2   force =    -0.16174797    0.11177683   -0.16840937
     atom  140 type  2   force =    -0.19675805    0.09980518    0.13076015
     atom  141 type  2   force =    -0.19675805   -0.09980518    0.13076015
     atom  142 type  2   force =     0.19675805   -0.09980518   -0.13076015
     atom  143 type  4   force =    -0.00888703    0.00152336    0.02382673
     atom  144 type  4   force =    -0.00888703   -0.00152336    0.02382673
     atom  145 type  4   force =     0.00888703   -0.00152336   -0.02382673
     atom  146 type  3   force =     0.16586004    0.33877617    0.45284606
     atom  147 type  3   force =     0.16586004   -0.33877617    0.45284606
     atom  148 type  3   force =    -0.16586004   -0.33877617   -0.45284606
     atom  149 type  2   force =    -0.17152949   -0.34474104   -0.43868921
     atom  150 type  2   force =    -0.17152949    0.34474104   -0.43868921
     atom  151 type  2   force =     0.17152949    0.34474104    0.43868921
     atom  152 type  3   force =    -0.01937963   -0.03162143    0.01410608
     atom  153 type  3   force =    -0.01937963    0.03162143    0.01410608
     atom  154 type  3   force =     0.01937963    0.03162143   -0.01410608
     atom  155 type  1   force =    -0.00733196   -0.01026588   -0.00188614
     atom  156 type  1   force =    -0.00733196    0.01026588   -0.00188614
     atom  157 type  1   force =     0.00733196    0.01026588    0.00188614
     atom  158 type  1   force =     0.05493549    0.03342976   -0.28302838
     atom  159 type  1   force =     0.05493549   -0.03342976   -0.28302838
     atom  160 type  1   force =    -0.05493549   -0.03342976    0.28302838

     Total force =     3.603661     Total SCF correction =     0.000294

     BFGS Geometry Optimization

     number of scf cycles    =   1
     number of bfgs steps    =   0

     energy   new            =   -1241.7733226873 Ry

     new trust radius        =       0.5000000000 bohr
     new conv_thr            =       0.0000001000 Ry


ATOMIC_POSITIONS (angstrom)
C        0.814061613   3.316451234   7.295886765
C        0.283577252   4.252897962   6.516232812
H        0.515906284   4.105981826   5.337297484
C       -0.451132833   5.317403641   6.800019785
C       -0.656109915   5.338681181   8.112616856
H       -1.343691264   6.266443176   8.493950515
C       -0.213474736   4.510754190   8.931345378
H       -0.472681817   4.670023036  10.111868139
C        0.536543710   3.444802254   8.672752361
C        1.104098358   2.477361883   9.628810583
C        7.244395344   2.506594929   0.185855469
H        6.547414421   3.393845573   0.595432260
C        7.622666792   1.819517748   1.198691356
H        8.304354537   0.935916655   0.718324015
C        7.537022764   1.728312302   2.552229977
C        6.881388480   2.602071741   3.333190094
H        6.406123270   3.531847311   2.718060157
C       -2.432789096   2.549329432   4.559283646
H        6.096651278   3.427300102   5.113375128
C       -1.974521045   1.593467248   5.397741846
C       -1.284678384   0.726214461   4.627094233
H       -0.779765621  15.528296820   5.236490778
C       -1.137352160   0.794794897   3.394628616
H       -0.489189250  -0.066969402   2.838797548
C       -2.977592845   2.402580325   7.352132668
H       -2.678241612   3.467852765   7.252754247
H       -3.055820168   2.248044915   8.453082345
H       -4.035532412   2.379344418   7.003884400
C       -1.649731476   0.530980881   7.460663162
H       -2.056757559  15.240788659   7.222672573
H       -1.818195706   0.633987556   8.559988866
H       -0.548938557   0.412464499   7.371203511
C       -0.916353355   6.254024788   5.885928420
H       -1.471278722   7.112245327   6.330194290
H       -1.626625164   5.855068890   5.117624264
H       -0.123387402   6.748536557   5.268486514
N       -2.163410253   1.532083899   6.722353223
O        1.508148761   2.474580236   6.605909204
H        1.898136480   1.682661895   7.622165217
O        1.850830293   1.545653868   9.186767213
H       -0.861046284  11.964981826  10.867902516
H        2.305603716  11.612028174   5.466172516
H        3.682556284   3.753028174  -0.064432516
C        0.106002833  13.176403641   9.405190215
C        3.272642833  10.400596359   4.003450215
C        2.715507167   2.541596359   1.398279785
C        0.310979915  13.197681181   8.092593144
C        3.477619915  10.379318819   2.690853144
C        2.510530085   2.520318819   2.710876856
H        0.998551264  14.125443176   7.711249485
H        4.165201264   9.451556824   2.309519485
H        1.822958736   1.592556824   3.092220515
C       -0.131655264  12.369754190   7.273864622
C        3.034984736  11.207245810   1.872124622
C        2.953165264   3.348245810   3.529605378
H        0.127541817  12.529023036   6.093331861
H        3.294191817  11.047976964   0.691601861
H        2.693968183   3.188976964   4.710138139
C       -0.881683710  11.303802254   7.532457639
C        2.284966290  12.273197746   2.130717639
C        3.703193710   4.414197746   3.271012361
C       -1.449228358  10.336361883   6.576389417
C        1.717411642  13.240638117   1.174659417
C        4.270738358   5.381638117   4.227080583
C       -1.256245344  10.365594929   5.215884531
C       -4.422885344  13.211405071  10.617614531
C        4.077755344   5.352405071   5.587585469
H       -0.559254421  11.252845573   4.806307740
H       -3.725904421  12.324154427  10.208037740
H        3.380764421   4.465154427   5.997162260
C       -1.634506792   9.678517748   4.203038644
C       -4.801156792  13.898482252   9.604778644
C        4.456016792   6.039482252   6.600431356
H       -2.316194537   8.794916655   4.683415985
H       -5.482844537  14.782083345  10.085145985
H        5.137704537   6.923083345   6.120054015
C       -1.548862764   9.587312302   2.849500023
C       -4.715512764  13.989687698   8.251240023
C        4.370372764   6.130687698   7.953969977
C       -0.893238480  10.461071741   2.068549906
C       -4.059878480  13.115928259   7.470279906
C        3.714748480   5.256928259   8.734920094
C        0.571213355  14.113024788  10.319281580
C        3.737863355   9.463975212   4.917541580
C        2.250296645   1.604975212   0.484188420
H       -0.417973270  11.390847311   2.683679843
H       -3.584613270  12.186152689   8.085409843
H        3.239483270   4.327152689   8.119790157
C        8.420939096  10.408329432   0.842446354
C        5.254299096  13.168670568   6.244186354
C       -5.599429096   5.309670568   9.961023646
H       -0.108491278  11.286300102   0.288354872
H       -3.275141278  12.290699898   5.690094872
H        2.930001278   4.431699898  10.515115128
C        7.962681045   9.452467248   0.003988154
C        4.796031045  14.124532752   5.405728154
C       -5.141171045   6.265532752  10.799481846
C        7.272828384   8.585214461   0.774645767
C        4.106188384  14.991785539   6.176375767
C       -4.451318384   7.132785539  10.028824233
H        6.767915621   7.669296820   0.165249222
H        3.601275621   0.189703180   5.566979222
H       -3.946405621   8.048703180  10.638220778
C        7.125512160   8.653794897   2.007101384
C        3.958862160  14.923205103   7.408841384
C       -4.304002160   7.064205103   8.796368616
H        6.477339250   7.792030598   2.562932452
H        3.310699250  15.784969402   7.964672452
H       -3.655829250   7.925969402   8.240537548
C        2.632452845  10.261580325   8.853077332
C        5.799102845  13.315419675   3.451337332
C        0.189057155   5.456419675   1.950392668
H        2.333101612  11.326852765   8.952445753
H        5.499751612  12.250147235   3.550715753
H        0.488408388   4.391147235   1.851024247
H        2.710680168  10.107044915   7.752127655
H        5.877330168  13.469955085   2.350387655
H        0.110829832   5.610955085   3.051342345
H        3.690392412  10.238344418   9.201315600
H        6.857042412  13.338655582   3.799585600
H       -0.868882412   5.479655582   1.602154400
C        1.304591476   8.389980881   8.744546838
C        4.471241476  15.187019119   3.342806838
C        1.516918524   7.328019119   2.058923162
H        1.711627559   7.381788659   8.982537427
H        4.878267559   0.477211341   3.580797427
H        1.109882441   8.336211341   1.820932573
H        1.473055706   8.492987556   7.645211134
H        4.639705706  15.084012444   2.243481134
H        1.348454294   7.225012444   3.158258866
H        0.203808557   8.271464499   8.833996489
H        3.370448557  15.305535501   3.432266489
H        2.617701443   7.446535501   1.969473511
H        1.126148722  14.971245327   9.875015710
H        4.292788722   8.605754673   4.473275710
H        1.695361278   0.746754673   0.928454290
H        7.614785164  13.714068890   0.284115736
H        4.448135164   9.862931110   5.685845736
H       -4.793275164   2.003931110  10.519354264
H        6.111537402  14.607536557   0.133243486
H        2.944897402   8.969463443   5.534983486
H       -3.290027402   1.110463443  10.670226514
N        1.818280253   9.391083899   9.482856777
N        4.984920253  14.185916101   4.081116777
N        1.003229747   6.326916101   1.320613223
O       -1.853288761  10.333580236   9.599290796
O        1.313361239  13.243419764   4.197560796
O        4.674798761   5.384419764   1.204179204
H       -2.243266480   9.541661895   8.583034783
H        0.923373520  14.035338105   3.181304783
H        5.064776480   6.176338105   2.220435217
O       -2.195960293   9.404653868   7.018432787
O        0.970679707  14.172346132   1.616702787
O        5.017470293   6.313346132   3.785037213
C       -1.159191613  11.175451234   8.909313235
C        2.007448387  12.401548766   3.507583235
C        3.980701613   4.542548766   1.894156765
C       -0.628707252  12.111897962   9.688967188
C        2.537932748  11.465102038   4.287237188
C        3.450217252   3.606102038   1.114502812



     Writing output data file 2hc_2_212.save
     charge density from previous step

     total cpu time spent up to now is     5547.4 secs

     per-process dynamical memory:  2067.3 Mb

     Self-consistent Calculation

     iteration #  1     ecut=    30.00 Ry     beta=0.70
     Davidson diagonalization with overlap
     ethr =  1.00E-06,  avg # of iterations = 19.8

     total cpu time spent up to now is     6961.2 secs

     total energy              =   -1210.96211026 Ry
     Harris-Foulkes estimate   =   -1270.52645018 Ry
     estimated scf accuracy    <      78.23783992 Ry

     iteration #  2     ecut=    30.00 Ry     beta=0.70
     Davidson diagonalization with overlap
     ethr =  1.00E-02,  avg # of iterations =  5.5

     total cpu time spent up to now is     7541.9 secs

     total energy              =   -1192.00171691 Ry
     Harris-Foulkes estimate   =   -1271.48007814 Ry
     estimated scf accuracy    <     190.77943209 Ry

     iteration #  3     ecut=    30.00 Ry     beta=0.70
     Davidson diagonalization with overlap
     ethr =  1.00E-02,  avg # of iterations =  7.5

     total cpu time spent up to now is     8166.9 secs

     total energy              =   -1234.42161495 Ry
     Harris-Foulkes estimate   =   -1249.17733169 Ry
     estimated scf accuracy    <      41.69166467 Ry

     iteration #  4     ecut=    30.00 Ry     beta=0.70
     Davidson diagonalization with overlap
     ethr =  9.65E-03,  avg # of iterations =  3.2

     total cpu time spent up to now is     8537.6 secs

     total energy              =   -1241.53609350 Ry
     Harris-Foulkes estimate   =   -1243.78400076 Ry
     estimated scf accuracy    <       5.48011521 Ry

     iteration #  5     ecut=    30.00 Ry     beta=0.70
     Davidson diagonalization with overlap
     ethr =  1.27E-03,  avg # of iterations =  4.0

     total cpu time spent up to now is     8914.3 secs

     total energy              =   -1242.31981925 Ry
     Harris-Foulkes estimate   =   -1242.57694964 Ry
     estimated scf accuracy    <       0.69344005 Ry

     iteration #  6     ecut=    30.00 Ry     beta=0.70
     Davidson diagonalization with overlap
     ethr =  1.61E-04,  avg # of iterations =  4.0

     total cpu time spent up to now is     9275.9 secs

     total energy              =   -1242.39888699 Ry
     Harris-Foulkes estimate   =   -1242.45622999 Ry
     estimated scf accuracy    <       0.19561574 Ry

     iteration #  7     ecut=    30.00 Ry     beta=0.70
     Davidson diagonalization with overlap
     ethr =  4.53E-05,  avg # of iterations =  3.9

     total cpu time spent up to now is     9619.8 secs

     total energy              =   -1242.40448085 Ry
     Harris-Foulkes estimate   =   -1242.42869767 Ry
     estimated scf accuracy    <       0.05739135 Ry

     iteration #  8     ecut=    30.00 Ry     beta=0.70
     Davidson diagonalization with overlap
     ethr =  1.33E-05,  avg # of iterations =  4.0

     total cpu time spent up to now is    10031.8 secs

     total energy              =   -1242.41368501 Ry
     Harris-Foulkes estimate   =   -1242.42025079 Ry
     estimated scf accuracy    <       0.01621693 Ry

     iteration #  9     ecut=    30.00 Ry     beta=0.70
     Davidson diagonalization with overlap
     ethr =  3.75E-06,  avg # of iterations =  3.0

     total cpu time spent up to now is    10395.5 secs

     total energy              =   -1242.41633280 Ry
     Harris-Foulkes estimate   =   -1242.41695967 Ry
     estimated scf accuracy    <       0.00144013 Ry

     iteration # 10     ecut=    30.00 Ry     beta=0.70
     Davidson diagonalization with overlap
     ethr =  3.33E-07,  avg # of iterations =  4.0

     total cpu time spent up to now is    10796.2 secs

     total energy              =   -1242.41660152 Ry
     Harris-Foulkes estimate   =   -1242.41672239 Ry
     estimated scf accuracy    <       0.00026119 Ry

     iteration # 11     ecut=    30.00 Ry     beta=0.70
     Davidson diagonalization with overlap
     ethr =  6.05E-08,  avg # of iterations =  4.0

     total cpu time spent up to now is    11204.0 secs

     total energy              =   -1242.41664693 Ry
     Harris-Foulkes estimate   =   -1242.41666838 Ry
     estimated scf accuracy    <       0.00004908 Ry

     iteration # 12     ecut=    30.00 Ry     beta=0.70
     Davidson diagonalization with overlap
     ethr =  1.14E-08,  avg # of iterations =  4.0

     total cpu time spent up to now is    11610.3 secs

     total energy              =   -1242.41665674 Ry
     Harris-Foulkes estimate   =   -1242.41666141 Ry
     estimated scf accuracy    <       0.00000961 Ry

     iteration # 13     ecut=    30.00 Ry     beta=0.70
     Davidson diagonalization with overlap
     ethr =  2.23E-09,  avg # of iterations =  3.9

     total cpu time spent up to now is    12020.2 secs

     total energy              =   -1242.41665885 Ry
     Harris-Foulkes estimate   =   -1242.41665942 Ry
     estimated scf accuracy    <       0.00000129 Ry

     iteration # 14     ecut=    30.00 Ry     beta=0.70
     Davidson diagonalization with overlap
     ethr =  2.98E-10,  avg # of iterations =  3.3

     total cpu time spent up to now is    12421.1 secs

     total energy              =   -1242.41665913 Ry
     Harris-Foulkes estimate   =   -1242.41665920 Ry
     estimated scf accuracy    <       0.00000015 Ry

     iteration # 15     ecut=    30.00 Ry     beta=0.70
[...]
     atom   39 type  2   force =     0.00004468    0.00026425    0.00008346
     atom   40 type  3   force =     0.00032568   -0.00001222   -0.00084222
     atom   41 type  2   force =    -0.00040278    0.00047271    0.00026571
     atom   42 type  2   force =    -0.00040278   -0.00047271    0.00026571
     atom   43 type  2   force =     0.00040278   -0.00047271   -0.00026571
     atom   44 type  1   force =    -0.00022440   -0.00023960    0.00003498
     atom   45 type  1   force =    -0.00022440    0.00023960    0.00003498
     atom   46 type  1   force =     0.00022440    0.00023960   -0.00003498
     atom   47 type  1   force =    -0.00014394    0.00045205    0.00018202
     atom   48 type  1   force =    -0.00014394   -0.00045205    0.00018202
     atom   49 type  1   force =     0.00014394   -0.00045205   -0.00018202
     atom   50 type  2   force =    -0.00002641    0.00070366    0.00011232
     atom   51 type  2   force =    -0.00002641   -0.00070366    0.00011232
     atom   52 type  2   force =     0.00002641   -0.00070366   -0.00011232
     atom   53 type  1   force =    -0.00037339    0.00005045    0.00023315
     atom   54 type  1   force =    -0.00037339   -0.00005045    0.00023315
     atom   55 type  1   force =     0.00037339   -0.00005045   -0.00023315
     atom   56 type  2   force =     0.00007677    0.00023622   -0.00027730
     atom   57 type  2   force =     0.00007677   -0.00023622   -0.00027730
     atom   58 type  2   force =    -0.00007677   -0.00023622    0.00027730
     atom   59 type  1   force =     0.00009208    0.00004690   -0.00007633
     atom   60 type  1   force =     0.00009208   -0.00004690   -0.00007633
     atom   61 type  1   force =    -0.00009208   -0.00004690    0.00007633
     atom   62 type  1   force =    -0.00011868   -0.00015704    0.00034169
     atom   63 type  1   force =    -0.00011868    0.00015704    0.00034169
     atom   64 type  1   force =     0.00011868    0.00015704   -0.00034169
     atom   65 type  1   force =     0.00011372    0.00005512    0.00021842
     atom   66 type  1   force =     0.00011372   -0.00005512    0.00021842
     atom   67 type  1   force =    -0.00011372   -0.00005512   -0.00021842
     atom   68 type  2   force =    -0.00013512    0.00016503   -0.00003768
     atom   69 type  2   force =    -0.00013512   -0.00016503   -0.00003768
     atom   70 type  2   force =     0.00013512   -0.00016503    0.00003768
     atom   71 type  1   force =     0.00023028    0.00014401    0.00004609
     atom   72 type  1   force =     0.00023028   -0.00014401    0.00004609
     atom   73 type  1   force =    -0.00023028   -0.00014401   -0.00004609
     atom   74 type  2   force =     0.00013524   -0.00035589   -0.00067404
     atom   75 type  2   force =     0.00013524    0.00035589   -0.00067404
     atom   76 type  2   force =    -0.00013524    0.00035589    0.00067404
     atom   77 type  1   force =    -0.00033350   -0.00052136    0.00022881
     atom   78 type  1   force =    -0.00033350    0.00052136    0.00022881
     atom   79 type  1   force =     0.00033350    0.00052136   -0.00022881
     atom   80 type  1   force =    -0.00007651    0.00020450    0.00058682
     atom   81 type  1   force =    -0.00007651   -0.00020450    0.00058682
     atom   82 type  1   force =     0.00007651   -0.00020450   -0.00058682
     atom   83 type  1   force =     0.00015016    0.00013894    0.00015324
     atom   84 type  1   force =     0.00015016   -0.00013894    0.00015324
     atom   85 type  1   force =    -0.00015016   -0.00013894   -0.00015324
     atom   86 type  2   force =     0.00021128    0.00027121   -0.00061609
     atom   87 type  2   force =     0.00021128   -0.00027121   -0.00061609
     atom   88 type  2   force =    -0.00021128   -0.00027121    0.00061609
     atom   89 type  1   force =     0.00026491    0.00039820   -0.00014428
     atom   90 type  1   force =     0.00026491   -0.00039820   -0.00014428
     atom   91 type  1   force =    -0.00026491   -0.00039820    0.00014428
     atom   92 type  2   force =     0.00024148    0.00047109   -0.00069292
     atom   93 type  2   force =     0.00024148   -0.00047109   -0.00069292
     atom   94 type  2   force =    -0.00024148   -0.00047109    0.00069292
     atom   95 type  1   force =     0.00031592    0.00046954    0.00058817
     atom   96 type  1   force =     0.00031592   -0.00046954    0.00058817
     atom   97 type  1   force =    -0.00031592   -0.00046954   -0.00058817
     atom   98 type  1   force =     0.00035860    0.00009941   -0.00003422
     atom   99 type  1   force =     0.00035860   -0.00009941   -0.00003422
     atom  100 type  1   force =    -0.00035860   -0.00009941    0.00003422
     atom  101 type  2   force =    -0.00006649   -0.00050726   -0.00037263
     atom  102 type  2   force =    -0.00006649    0.00050726   -0.00037263
     atom  103 type  2   force =     0.00006649    0.00050726    0.00037263
     atom  104 type  1   force =     0.00030012   -0.00004357   -0.00078455
     atom  105 type  1   force =     0.00030012    0.00004357   -0.00078455
     atom  106 type  1   force =    -0.00030012    0.00004357    0.00078455
     atom  107 type  2   force =     0.00003742   -0.00043917    0.00023661
     atom  108 type  2   force =     0.00003742    0.00043917    0.00023661
     atom  109 type  2   force =    -0.00003742    0.00043917   -0.00023661
     atom  110 type  1   force =    -0.00020215   -0.00026419    0.00028009
     atom  111 type  1   force =    -0.00020215    0.00026419    0.00028009
     atom  112 type  1   force =     0.00020215    0.00026419   -0.00028009
     atom  113 type  2   force =     0.00042839   -0.00025595   -0.00005518
     atom  114 type  2   force =     0.00042839    0.00025595   -0.00005518
     atom  115 type  2   force =    -0.00042839    0.00025595    0.00005518
     atom  116 type  2   force =    -0.00030641   -0.00035404    0.00041565
     atom  117 type  2   force =    -0.00030641    0.00035404    0.00041565
     atom  118 type  2   force =     0.00030641    0.00035404   -0.00041565
     atom  119 type  2   force =    -0.00043688    0.00063069    0.00006888
     atom  120 type  2   force =    -0.00043688   -0.00063069    0.00006888
     atom  121 type  2   force =     0.00043688   -0.00063069   -0.00006888
     atom  122 type  1   force =     0.00026426    0.00008928    0.00024132
     atom  123 type  1   force =     0.00026426   -0.00008928    0.00024132
     atom  124 type  1   force =    -0.00026426   -0.00008928   -0.00024132
     atom  125 type  2   force =    -0.00024006   -0.00006772    0.00032325
     atom  126 type  2   force =    -0.00024006    0.00006772    0.00032325
     atom  127 type  2   force =     0.00024006    0.00006772   -0.00032325
     atom  128 type  2   force =     0.00050928    0.00030078    0.00014936
     atom  129 type  2   force =     0.00050928   -0.00030078    0.00014936
     atom  130 type  2   force =    -0.00050928   -0.00030078   -0.00014936
     atom  131 type  2   force =     0.00039768   -0.00053686    0.00026050
     atom  132 type  2   force =     0.00039768    0.00053686    0.00026050
     atom  133 type  2   force =    -0.00039768    0.00053686   -0.00026050
     atom  134 type  2   force =     0.00016135    0.00034028    0.00000461
     atom  135 type  2   force =     0.00016135   -0.00034028    0.00000461
     atom  136 type  2   force =    -0.00016135   -0.00034028   -0.00000461
     atom  137 type  2   force =     0.00054353   -0.00016706    0.00001864
     atom  138 type  2   force =     0.00054353    0.00016706    0.00001864
     atom  139 type  2   force =    -0.00054353    0.00016706   -0.00001864
     atom  140 type  2   force =    -0.00009100   -0.00018228    0.00048185
     atom  141 type  2   force =    -0.00009100    0.00018228    0.00048185
     atom  142 type  2   force =     0.00009100    0.00018228   -0.00048185
     atom  143 type  4   force =     0.00023607    0.00006971   -0.00022410
     atom  144 type  4   force =     0.00023607   -0.00006971   -0.00022410
     atom  145 type  4   force =    -0.00023607   -0.00006971    0.00022410
     atom  146 type  3   force =    -0.00047119   -0.00033169    0.00060947
     atom  147 type  3   force =    -0.00047119    0.00033169    0.00060947
     atom  148 type  3   force =     0.00047119    0.00033169   -0.00060947
     atom  149 type  2   force =    -0.00004468    0.00026425   -0.00008346
     atom  150 type  2   force =    -0.00004468   -0.00026425   -0.00008346
     atom  151 type  2   force =     0.00004468   -0.00026425    0.00008346
     atom  152 type  3   force =    -0.00032568   -0.00001222    0.00084222
     atom  153 type  3   force =    -0.00032568    0.00001222    0.00084222
     atom  154 type  3   force =     0.00032568    0.00001222   -0.00084222
     atom  155 type  1   force =    -0.00026540   -0.00066907   -0.00028207
     atom  156 type  1   force =    -0.00026540    0.00066907   -0.00028207
     atom  157 type  1   force =     0.00026540    0.00066907    0.00028207
     atom  158 type  1   force =    -0.00024057   -0.00045363    0.00042906
     atom  159 type  1   force =    -0.00024057    0.00045363    0.00042906
     atom  160 type  1   force =     0.00024057    0.00045363   -0.00042906

     Total force =     0.007293     Total SCF correction =     0.000036

     bfgs converged in  36 scf cycles and  35 bfgs steps
     (criteria: energy <  1.0E-04 Ry, force <  1.0E-03 Ry/Bohr)

     End of BFGS Geometry Optimization

     Final energy   =   -1244.7882091027 Ry
Begin final coordinates

ATOMIC_POSITIONS (angstrom)
C        0.759678483   3.289907683   7.271189916
C        0.264906243   4.216399717   6.348312160
H        0.491073786   4.059183593   5.293288275
C       -0.494654465   5.308395519   6.759700297
C       -0.787990112   5.450659848   8.129694069
H       -1.404156537   6.285166822   8.463375909
C       -0.303624506   4.542200039   9.054188963
H       -0.542848545   4.705430481  10.103641656
C        0.489483965   3.443853134   8.665062462
C        1.067195202   2.484588813   9.616248134
C        7.159160390   2.614135872   0.226789978
H        6.510923590   3.416311002   0.571907372
C        7.701737817   1.740605410   1.127884969
H        8.330370881   0.942655516   0.722425213
C        7.526771062   1.742351459   2.544858745
C        6.790450450   2.727481144   3.243975414
H        6.344656169   3.557960539   2.696959379
C       -2.552942909   2.658744550   4.605122945
H        6.019385399   3.435685414   5.094594209
C       -2.003255943   1.592105122   5.375040293
C       -1.246585656   0.608013598   4.680083946
H       -0.799849798  15.495085788   5.220639182
C       -1.070836933   0.694028918   3.315165749
H       -0.495778388  -0.074509068   2.797754230
C       -3.041279599   2.501999800   7.387467796
H       -2.638950036   3.520728119   7.273560001
H       -3.087486850   2.266430737   8.454889584
H       -4.067732464   2.480838700   6.984812690
C       -1.618111017   0.432805232   7.483684856
H       -2.054675273  15.179402956   7.199726779
H       -1.808299198   0.599114408   8.548824477
H       -0.528779022   0.389540719   7.333736463
C       -0.976028211   6.319150960   5.760869586
H       -1.462787486   7.171936191   6.250753985
H       -1.693175814   5.875894370   5.052035690
H       -0.134319967   6.707273400   5.166508802
N       -2.196524259   1.525254868   6.717238648
O        1.515252369   2.265856762   6.824146667
H        1.773915021   1.760804447   7.698601867
O        1.800796445   1.531366525   9.163987453
H       -0.836213786  11.918183593  10.911911725
H        2.330436214  11.658826407   5.510181725
H        3.657723786   3.799826407  -0.108441725
C        0.149524465  13.167395519   9.445509703
C        3.316164465  10.409604481   4.043769703
C        2.671985535   2.550604481   1.357960297
C        0.442860112  13.309659848   8.075515931
C        3.609500112  10.267340152   2.673775931
C        2.378649888   2.408340152   2.727954069
H        1.059016537  14.144166822   7.741824091
H        4.225666537   9.432833178   2.340094091
H        1.762493463   1.573833178   3.061645909
C       -0.041505494  12.401200039   7.151021037
C        3.125134506  11.175799961   1.749281037
C        2.863015494   3.316799961   3.652448963
H        0.197708545  12.564430481   6.101558344
H        3.364358545  11.012569519   0.699828344
H        2.623801455   3.153569519   4.701911656
C       -0.834623965  11.302853134   7.540147538
C        2.332026035  12.274146866   2.138407538
C        3.656133965   4.415146866   3.263322462
C       -1.412325202  10.343588813   6.588951866
C        1.754314798  13.233411187   1.187221866
C        4.233835202   5.374411187   4.214518134
C       -1.171010390  10.473135872   5.174950022
C       -4.337650390  13.103864128  10.576680022
C        3.992520390   5.244864128   5.628519978
H       -0.522763590  11.275311002   4.829832628
H       -3.689413590  12.301688998  10.231562628
H        3.344273590   4.442688998   5.973637372
C       -1.713577817   9.599605410   4.273845031
C       -4.880227817  13.977394590   9.675585031
C        4.535087817   6.118394590   6.529624969
H       -2.342210881   8.801655516   4.679314787
H       -5.508860881  14.775344484  10.081044787
H        5.163720881   6.916344484   6.124155213
C       -1.538611062   9.601351459   2.856871255
C       -4.705261062  13.975648541   8.258611255
C        4.360121062   6.116648541   7.946598745
C       -0.802300450  10.586481144   2.157764586
C       -3.968940450  12.990518856   7.559494586
C        3.623810450   5.131518856   8.645705414
C        0.630888211  14.178150960  10.444340414
C        3.797538211   9.398849040   5.042600414
C        2.190621789   1.539849040   0.359129586
H       -0.356506169  11.416960539   2.704780621
H       -3.523146169  12.160039461   8.106510621
H        3.178016169   4.301039461   8.098689379
C        8.541092909  10.517744550   0.796607055
C        5.374452909  13.059255450   6.198347055
C       -5.719582909   5.200255450  10.006862945
H       -0.031225399  11.294685414   0.307135791
H       -3.197875399  12.282314586   5.708875791
H        2.852735399   4.423314586  10.496334209
C        7.991415943   9.451105122   0.026689707
C        4.824765943  14.125894878   5.428429707
C       -5.169905943   6.266894878  10.776780293
C        7.234735656   8.467013598   0.721656054
C        4.068095656  15.109986402   6.123386054
C       -4.413225656   7.250986402  10.081813946
H        6.787999798   7.636085788   0.181100818
H        3.621359798   0.222914212   5.582830818
H       -3.966489798   8.081914212  10.622369182
C        7.058996933   8.553028918   2.086564251
C        3.892346933  15.023971082   7.488304251
C       -4.237486933   7.164971082   8.716905749
H        6.483928388   7.784490932   2.603975770
H        3.317288388  15.792509068   8.005715770
H       -3.662418388   7.933509068   8.199494230
C        2.696139599  10.360999800   8.817742204
C        5.862789599  13.216000200   3.416002204
C        0.125370401   5.357000200   1.985727796
H        2.293810036  11.379728119   8.931639999
H        5.460460036  12.197271881   3.529909999
H        0.527699964   4.338271881   1.871830001
H        2.742346850  10.125430737   7.750320416
H        5.908996850  13.451569263   2.348580416
H        0.079163150   5.592569263   3.053149584
H        3.722592464  10.339838700   9.220387310
H        6.889242464  13.237161300   3.818657310
H       -0.901082464   5.378161300   1.583082690
C        1.272971017   8.291805232   8.721525144
C        4.439621017  15.285194768   3.319785144
C        1.548538983   7.426194768   2.081944856
H        1.709545273   7.320402956   9.005483221
H        4.876185273   0.538597044   3.603743221
H        1.111964727   8.397597044   1.797986779
H        1.463159198   8.458114408   7.656375523
H        4.629809198  15.118885592   2.254645523
H        1.358350802   7.259885592   3.147094477
H        0.183649022   8.248540719   8.871463537
H        3.350289022  15.328459281   3.469733537
H        2.637860978   7.469459281   1.932006463
H        1.117657486  15.030936191   9.954456015
H        4.284297486   8.546063809   4.552716015
H        1.703852514   0.687063809   0.849013985
H        7.681335814  13.734894370   0.349704310
H        4.514685814   9.842105630   5.751434310
H       -4.859825814   1.983105630  10.453765690
H        6.122469967  14.566273400   0.235221198
H        2.955829967   9.010726600   5.636961198
H       -3.300959967   1.151726600  10.568248802
N        1.851394259   9.384254868   9.487971352
N        5.018034259  14.192745132   4.086231352
N        0.970115741   6.333745132   1.315498648
O       -1.860392369  10.124856762   9.381053333
O        1.306257631  13.452143238   3.979323333
O        4.681902369   5.593143238   1.422416667
H       -2.119045021   9.619804447   8.506598133
H        1.047594979  13.957195553   3.104868133
H        4.940555021   6.098195553   2.296871867
O       -2.145926445   9.390366525   7.041212547
O        1.020713555  14.186633475   1.639482547
O        4.967436445   6.327633475   3.762257453
C       -1.104808483  11.148907683   8.934010084
C        2.061831517  12.428092317   3.532280084
C        3.926318483   4.569092317   1.869459916
C       -0.610036243  12.075399717   9.856887840
C        2.556603757  11.501600283   4.455157840
C        3.431546243   3.642600283   0.946582160
End final coordinates



     Writing output data file 2hc_2_212.save
 
     init_run     :    220.49s CPU    222.41s WALL (       1 calls)
     electrons    : 169319.43s CPU 170855.57s WALL (      36 calls)
     update_pot   :     30.35s CPU     30.45s WALL (      35 calls)
     forces       :   2834.49s CPU   2853.56s WALL (      36 calls)

     Called by init_run:
     wfcinit      :    214.77s CPU    216.40s WALL (       1 calls)
     potinit      :      2.30s CPU      2.33s WALL (       1 calls)

     Called by electrons:
     c_bands      : 152567.29s CPU 153935.61s WALL (     394 calls)
     sum_band     :  16068.42s CPU  16150.50s WALL (     394 calls)
     v_of_rho     :    129.11s CPU    129.26s WALL (     430 calls)
     newd         :    233.68s CPU    316.16s WALL (     430 calls)
     mix_rho      :     22.22s CPU     23.58s WALL (     394 calls)

     Called by c_bands:
     init_us_2    :   1185.95s CPU   1186.14s WALL (   11550 calls)
     cegterg      : 148471.62s CPU 149835.05s WALL (    5516 calls)

     Called by sum_band:
     sum_band:bec :      5.53s CPU      5.53s WALL (    5516 calls)
     addusdens    :    241.46s CPU    317.78s WALL (     394 calls)

     Called by *egterg:
     h_psi        :  88992.99s CPU  89022.37s WALL (   28943 calls)
     s_psi        :  18703.15s CPU  18702.59s WALL (   28943 calls)
     g_psi        :    512.45s CPU    512.44s WALL (   23413 calls)
     cdiaghg      :   4167.63s CPU   4167.80s WALL (   28439 calls)

     Called by h_psi:
     h_psi:pot    :  88408.06s CPU  88436.52s WALL (   28943 calls)
     h_psi:calbec :  17366.87s CPU  17366.43s WALL (   28943 calls)
     vloc_psi     :  52341.36s CPU  52370.68s WALL (   28943 calls)
     add_vuspsi   :  18699.80s CPU  18699.24s WALL (   28943 calls)

     General routines
     calbec       :  25064.49s CPU  25063.83s WALL (   36475 calls)
     fft          :     57.32s CPU     57.44s WALL (    5591 calls)
     fftw         :  51994.25s CPU  52018.62s WALL ( 8349914 calls)
     davcio       :      0.03s CPU      7.90s WALL (      14 calls)
 
     Parallel routines
     fft_scatter  :   7990.25s CPU   7998.80s WALL ( 8355505 calls)
 
     PWSCF        :     1d   23h53m CPU        2d    0h20m WALL

 
   This run was terminated on:  20:40:54  11Nov2017            

=------------------------------------------------------------------------------=
   JOB DONE.
=------------------------------------------------------------------------------=
