
     Program PWSCF v.6.1 (svn rev. 13369) starts on 16Oct2017 at 10:17:20 

     This program is part of the open-source Quantum ESPRESSO suite
     for quantum simulation of materials; please cite
         "P. Giannozzi et al., J. Phys.:Condens. Matter 21 395502 (2009);
          URL http://www.quantum-espresso.org", 
     in publications or presentations arising from this work. More details at
     http://www.quantum-espresso.org/quote

     Parallel version (MPI), running on     1 processors
     Waiting for input...
     Reading input from standard input

     Current dimensions of program PWSCF are:
     Max number of different atomic species (ntypx) = 10
     Max number of k-points (npk) =  40000
     Max angular momentum in pseudopotentials (lmaxx) =  3
     Message from routine iosys:
     london is obsolete, use "vdw_corr='grimme-d2'" instead

     IMPORTANT: XC functional enforced from input :
     Exchange-correlation      = PBE ( 1  4  3  4 0 0)
     Any further DFT definition will be discarded
     Please, verify this is what you really want

               file C.pbe-rrkjus.UPF: wavefunction(s)  2S 2P renormalized
               file H.pbe-rrkjus.UPF: wavefunction(s)  1S renormalized
               file O.pbe-rrkjus.UPF: wavefunction(s)  2S renormalized
               file N.pbe-rrkjus.UPF: wavefunction(s)  2S renormalized

     -------------------------------------
     Parameters for Dispersion Correction:
     -------------------------------------
       atom      VdW radius       C_6     

        C          2.744         60.710
        H          1.892          4.857
        O          2.536         24.284
        N          2.640         42.670

     Subspace diagonalization in iterative solution of the eigenvalue problem:
     a serial algorithm will be used

 
     G-vector sticks info
     --------------------
     sticks:   dense  smooth     PW     G-vecs:    dense   smooth      PW
     Sum        4821    4821   1305               469205   469205   65775
 


     bravais-lattice index     =            0
     lattice parameter (alat)  =      20.3146  a.u.
     unit-cell volume          =   21137.7230 (a.u.)^3
     number of atoms/cell      =          320
     number of atomic types    =            4
     number of electrons       =       864.00
     number of Kohn-Sham states=          432
     kinetic-energy cutoff     =      30.0000  Ry
     charge density cutoff     =     120.0000  Ry
     convergence threshold     =      1.0E-07
     mixing beta               =       0.7000
     number of iterations used =            8  plain     mixing
     Exchange-correlation      = PBE ( 1  4  3  4 0 0)
     nstep                     =           50


     celldm(1)=  20.314556  celldm(2)=   0.000000  celldm(3)=   0.000000
     celldm(4)=   0.000000  celldm(5)=   0.000000  celldm(6)=   0.000000

     crystal axes: (cart. coord. in units of alat)
               a(1) = (   1.000000   0.000000   0.000000 )  
               a(2) = (   0.000000   1.224186   0.000000 )  
               a(3) = (   0.000000   0.000000   2.059628 )  

     reciprocal axes: (cart. coord. in units 2 pi/alat)
               b(1) = (  1.000000  0.000000  0.000000 )  
               b(2) = (  0.000000  0.816869  0.000000 )  
               b(3) = (  0.000000  0.000000  0.485525 )  


     PseudoPot. # 1 for C  read from file:
     /data/home/btx156/espresso/pseudo/C.pbe-rrkjus.UPF
     MD5 check sum: 00fb224312de0c5b6853bd333518df6f
     Pseudo is Ultrasoft, Zval =  4.0
     Generated by new atomic code, or converted to UPF format
     Using radial grid of  627 points,  4 beta functions with: 
                l(1) =   0
                l(2) =   0
                l(3) =   1
                l(4) =   1
     Q(r) pseudized with 0 coefficients 


     PseudoPot. # 2 for H  read from file:
     /data/home/btx156/espresso/pseudo/H.pbe-rrkjus.UPF
     MD5 check sum: 7cc9d459525c9a0585f487a71c3c9563
     Pseudo is Ultrasoft, Zval =  1.0
     Generated by new atomic code, or converted to UPF format
     Using radial grid of 1061 points,  2 beta functions with: 
                l(1) =   0
                l(2) =   0
     Q(r) pseudized with 0 coefficients 


     PseudoPot. # 3 for O  read from file:
     /data/home/btx156/espresso/pseudo/O.pbe-rrkjus.UPF
     MD5 check sum: 390ba29e75625707450f3bd3f0eb6be9
     Pseudo is Ultrasoft, Zval =  6.0
     Generated by new atomic code, or converted to UPF format
     Using radial grid of 1269 points,  4 beta functions with: 
                l(1) =   0
                l(2) =   0
                l(3) =   1
                l(4) =   1
     Q(r) pseudized with 0 coefficients 


     PseudoPot. # 4 for N  read from file:
     /data/home/btx156/espresso/pseudo/N.pbe-rrkjus.UPF
     MD5 check sum: 0c3fbe5807a93f9ba59d5a7019aa238b
     Pseudo is Ultrasoft, Zval =  5.0
     Generated by new atomic code, or converted to UPF format
     Using radial grid of 1257 points,  4 beta functions with: 
                l(1) =   0
                l(2) =   0
                l(3) =   1
                l(4) =   1
     Q(r) pseudized with 0 coefficients 


     atomic species   valence    mass     pseudopotential
        C              4.00    12.00000     C ( 1.00)
        H              1.00     1.00790     H ( 1.00)
        O              6.00    15.99940     O ( 1.00)
        N              5.00    14.00670     N ( 1.00)

      8 Sym. Ops., with inversion, found ( 6 have fractional translation)



   Cartesian axes

     site n.     atom                  positions (alat units)
         1           O   tau(   1) = (   0.1580987   0.1964727   0.3372673  )
         2           O   tau(   2) = (   0.0665173   0.0361308   0.1987617  )
         3           C   tau(   3) = (   0.1365068   1.1746640   0.2439735  )
         4           C   tau(   4) = (   0.0908575   0.9059542   0.0166436  )
         5           C   tau(   5) = (   0.2089221   1.2029435   0.3571736  )
         6           C   tau(   6) = (   0.1475052   1.0547307   0.1859611  )
         7           C   tau(   7) = (   0.2175626   0.1042244   0.3987033  )
         8           C   tau(   8) = (   0.1824318   0.7005859   2.0435901  )
         9           N   tau(   9) = (   0.1188967   0.5752072   1.8674587  )
        10           C   tau(  10) = (   0.1089081   0.6814526   1.9348512  )
        11           C   tau(  11) = (   0.0817496   1.0213654   0.0820967  )
        12           C   tau(  12) = (   0.2709377   1.1108326   0.4268493  )
        13           C   tau(  13) = (   0.1731294   0.8088947   0.0513138  )
        14           C   tau(  14) = (   0.3491029   0.0391961   0.5695215  )
        15           C   tau(  15) = (   0.2899922   0.1329348   0.5034425  )
        16           C   tau(  16) = (   0.3394942   1.1379331   0.5329107  )
        17           C   tau(  17) = (   0.0171412   0.8855620   1.9690409  )
        18           C   tau(  18) = (   0.0250328   0.7777809   1.8998141  )
        19           C   tau(  19) = (   0.0428751   0.5568071   1.7570199  )
        20           C   tau(  20) = (   0.2057527   0.4783135   1.9055642  )
        21           C   tau(  21) = (   0.4025322   1.0359765   0.6051902  )
        22           H   tau(  22) = (   0.3629895   1.0268942   0.6993255  )
        23           H   tau(  23) = (   0.5021212   1.0555871   0.6173280  )
        24           H   tau(  24) = (   0.3934828   0.9463881   0.5569563  )
        25           H   tau(  25) = (   0.2658017   1.0140616   0.3974197  )
        26           H   tau(  26) = (   0.9524541   0.9582840   1.9407508  )
        27           H   tau(  27) = (   0.0169503   1.0898357   0.0434201  )
        28           H   tau(  28) = (   0.2472111   0.6292239   0.0146896  )
        29           H   tau(  29) = (   0.2979579   0.2299012   0.5320156  )
        30           H   tau(  30) = (   0.4039388   0.0628292   0.6517245  )
        31           H   tau(  31) = (   0.2314021   0.8192189   0.1335972  )
        32           H   tau(  32) = (   0.2129860   0.9889707   0.2263953  )
        33           H   tau(  33) = (   0.9432334   0.5641323   1.7789971  )
        34           H   tau(  34) = (   0.9665243   0.7670958   1.8179113  )
        35           H   tau(  35) = (   0.2028328   0.4023532   1.8378492  )
        36           H   tau(  36) = (   0.1812687   0.4408950   1.9976743  )
        37           H   tau(  37) = (   0.0607786   0.4641529   1.7190697  )
        38           H   tau(  38) = (   0.3015915   0.5142763   1.9099252  )
        39           H   tau(  39) = (   0.1059437   0.1479757   0.2712949  )
        40           H   tau(  40) = (   0.0647930   0.6258673   1.6845965  )
        41           O   tau(  41) = (   0.3419023   1.0277133   1.3670812  )
        42           O   tau(  42) = (   0.8419013   0.8085658   0.6925467  )
        43           O   tau(  43) = (   0.6580987   0.4156203   1.7223606  )
        44           O   tau(  44) = (   0.8419023   1.0277133   1.7223606  )
        45           O   tau(  45) = (   0.6580987   0.1964727   0.6925467  )
        46           O   tau(  46) = (   0.1580987   0.4156203   1.3670812  )
        47           O   tau(  47) = (   0.3419023   0.8085658   0.3372673  )
        48           O   tau(  48) = (   0.4334827   1.1880553   1.2285757  )
        49           O   tau(  49) = (   0.9334827   0.6482238   0.8310522  )
        50           O   tau(  50) = (   0.5665173   0.5759623   1.8608662  )
        51           O   tau(  51) = (   0.9334827   1.1880553   1.8608662  )
        52           O   tau(  52) = (   0.5665173   0.0361308   0.8310522  )
        53           O   tau(  53) = (   0.0665173   0.5759623   1.2285757  )
        54           O   tau(  54) = (   0.4334827   0.6482238   0.1987617  )
        55           C   tau(  55) = (   0.3634932   0.0495220   1.2737874  )
        56           C   tau(  56) = (   0.8634932   0.5625710   0.7858405  )
        57           C   tau(  57) = (   0.6365068   0.6616151   1.8156544  )
        58           C   tau(  58) = (   0.8634932   0.0495220   1.8156544  )
        59           C   tau(  59) = (   0.6365068   1.1746640   0.7858405  )
        60           C   tau(  60) = (   0.1365068   0.6616151   1.2737874  )
        61           C   tau(  61) = (   0.3634932   0.5625710   0.2439735  )
        62           C   tau(  62) = (   0.4091425   0.3182319   1.0464576  )
        63           C   tau(  63) = (   0.9091425   0.2938611   1.0131703  )
        64           C   tau(  64) = (   0.5908575   0.9303249   2.0429843  )
        65           C   tau(  65) = (   0.9091425   0.3182319   2.0429843  )
        66           C   tau(  66) = (   0.5908575   0.9059542   1.0131703  )
        67           C   tau(  67) = (   0.0908575   0.9303249   1.0464576  )
        68           C   tau(  68) = (   0.4091425   0.2938611   0.0166436  )
        69           C   tau(  69) = (   0.2910779   0.0212425   1.3869875  )
        70           C   tau(  70) = (   0.7910779   0.5908505   0.6726404  )
        71           C   tau(  71) = (   0.7089221   0.6333355   1.7024543  )
        72           C   tau(  72) = (   0.7910779   0.0212425   1.7024543  )
        73           C   tau(  73) = (   0.7089221   1.2029435   0.6726404  )
        74           C   tau(  74) = (   0.2089221   0.6333355   1.3869875  )
        75           C   tau(  75) = (   0.2910779   0.5908505   0.3571736  )
        76           C   tau(  76) = (   0.3524948   0.1694554   1.2157751  )
        77           C   tau(  77) = (   0.8524948   0.4426377   0.8438528  )
        78           C   tau(  78) = (   0.6475052   0.7815484   1.8736668  )
        79           C   tau(  79) = (   0.8524948   0.1694554   1.8736668  )
        80           C   tau(  80) = (   0.6475052   1.0547307   0.8438528  )
        81           C   tau(  81) = (   0.1475052   0.7815484   1.2157751  )
        82           C   tau(  82) = (   0.3524948   0.4426377   0.1859611  )
        83           C   tau(  83) = (   0.2824374   1.1199616   1.4285172  )
        84           C   tau(  84) = (   0.7824374   0.7163175   0.6311107  )
        85           C   tau(  85) = (   0.7175626   0.5078686   1.6609246  )
        86           C   tau(  86) = (   0.7824374   1.1199616   1.6609246  )
        87           C   tau(  87) = (   0.7175626   0.1042244   0.6311107  )
        88           C   tau(  88) = (   0.2175626   0.5078686   1.4285172  )
        89           C   tau(  89) = (   0.2824374   0.7163175   0.3987033  )
        90           C   tau(  90) = (   0.3175691   0.5236001   1.0137761  )
        91           C   tau(  91) = (   0.8175682   0.0884929   1.0458518  )
        92           C   tau(  92) = (   0.6824318   1.1356932   0.0160378  )
        93           C   tau(  93) = (   0.8175682   0.5236001   0.0160378  )
        94           C   tau(  94) = (   0.6824318   0.7005859   1.0458518  )
        95           C   tau(  95) = (   0.1824318   1.1356932   1.0137761  )
        96           C   tau(  96) = (   0.3175691   0.0884929   2.0435901  )
        97           N   tau(  97) = (   0.3811033   0.6489788   0.8376447  )
        98           N   tau(  98) = (   0.8811033   1.1873003   1.2219832  )
        99           N   tau(  99) = (   0.6188967   0.0368858   0.1921692  )
       100           N   tau( 100) = (   0.8811033   0.6489788   0.1921692  )
       101           N   tau( 101) = (   0.6188967   0.5752072   1.2219832  )
       102           N   tau( 102) = (   0.1188967   0.0368858   0.8376447  )
       103           N   tau( 103) = (   0.3811033   1.1873003   1.8674587  )
       104           C   tau( 104) = (   0.3910919   0.5427335   0.9050372  )
       105           C   tau( 105) = (   0.8910919   0.0693596   1.1545907  )
       106           C   tau( 106) = (   0.6089081   1.1548265   0.1247767  )
       107           C   tau( 107) = (   0.8910919   0.5427335   0.1247767  )
       108           C   tau( 108) = (   0.6089081   0.6814526   1.1545907  )
       109           C   tau( 109) = (   0.1089081   1.1548265   0.9050372  )
       110           C   tau( 110) = (   0.3910919   0.0693596   1.9348512  )
       111           C   tau( 111) = (   0.4182513   0.2028206   1.1119107  )
       112           C   tau( 112) = (   0.9182504   0.4092724   0.9477173  )
       113           C   tau( 113) = (   0.5817496   0.8149137   1.9775312  )
       114           C   tau( 114) = (   0.9182513   0.2028206   1.9775312  )
       115           C   tau( 115) = (   0.5817496   1.0213654   0.9477173  )
       116           C   tau( 116) = (   0.0817496   0.8149137   1.1119107  )
       117           C   tau( 117) = (   0.4182504   0.4092724   0.0820967  )
       118           C   tau( 118) = (   0.2290632   0.1133534   1.4566633  )
       119           C   tau( 119) = (   0.7290623   0.4987396   0.6029646  )
       120           C   tau( 120) = (   0.7709377   0.7254464   1.6327786  )
       121           C   tau( 121) = (   0.7290623   0.1133534   1.6327786  )
       122           C   tau( 122) = (   0.7709377   1.1108326   0.6029646  )
       123           C   tau( 123) = (   0.2709377   0.7254464   1.4566633  )
       124           C   tau( 124) = (   0.2290632   0.4987396   0.4268493  )
       125           C   tau( 125) = (   0.3268706   0.4152913   1.0811277  )
       126           C   tau( 126) = (   0.8268706   0.1968017   0.9785002  )
       127           C   tau( 127) = (   0.6731294   1.0273844   2.0083142  )
       128           C   tau( 128) = (   0.8268706   0.4152913   2.0083142  )
       129           C   tau( 129) = (   0.6731294   0.8088947   0.9785002  )
       130           C   tau( 130) = (   0.1731294   1.0273844   1.0811277  )
       131           C   tau( 131) = (   0.3268706   0.1968017   0.0513138  )
       132           C   tau( 132) = (   0.1508980   1.1849899   1.5993355  )
       133           C   tau( 133) = (   0.6508980   0.6512892   0.4602924  )
       134           C   tau( 134) = (   0.8491029   0.5728969   1.4901064  )
       135           C   tau( 135) = (   0.6508980   1.1849899   1.4901064  )
       136           C   tau( 136) = (   0.8491020   0.0391961   0.4602924  )
       137           C   tau( 137) = (   0.3491029   0.5728969   1.5993355  )
       138           C   tau( 138) = (   0.1508980   0.6512892   0.5695215  )
       139           C   tau( 139) = (   0.2100088   1.0912512   1.5332564  )
       140           C   tau( 140) = (   0.7100088   0.7450279   0.5263715  )
       141           C   tau( 141) = (   0.7899922   0.4791582   1.5561854  )
       142           C   tau( 142) = (   0.7100088   1.0912512   1.5561854  )
       143           C   tau( 143) = (   0.7899922   0.1329348   0.5263715  )
       144           C   tau( 144) = (   0.2899922   0.4791582   1.5332564  )
       145           C   tau( 145) = (   0.2100088   0.7450279   0.5034425  )
       146           C   tau( 146) = (   0.1605058   0.0862530   1.5627247  )
       147           C   tau( 147) = (   0.6605058   0.5258400   0.4969032  )
       148           C   tau( 148) = (   0.8394942   0.6983460   1.5267172  )
       149           C   tau( 149) = (   0.6605058   0.0862530   1.5267172  )
       150           C   tau( 150) = (   0.8394942   1.1379331   0.4969032  )
       151           C   tau( 151) = (   0.3394942   0.6983460   1.5627247  )
       152           C   tau( 152) = (   0.1605058   0.5258400   0.5329107  )
       153           H   tau( 153) = (   0.5567666   0.6600538   0.7491831  )
       154           H   tau( 154) = (   0.0567666   1.1762253   1.3104448  )
       155           H   tau( 155) = (   0.4432334   0.0479608   0.2806308  )
       156           H   tau( 156) = (   0.0567666   0.6600538   0.2806308  )
       157           H   tau( 157) = (   0.4432334   0.5641323   1.3104448  )
       158           H   tau( 158) = (   0.9432334   0.0479608   0.7491831  )
       159           H   tau( 159) = (   0.5567666   1.1762253   1.7789971  )
       160           C   tau( 160) = (   0.4828597   0.3386240   0.9392269  )
       161           C   tau( 161) = (   0.9828597   0.2734690   1.1204010  )
       162           C   tau( 162) = (   0.5171412   0.9507171   0.0905870  )
       163           C   tau( 163) = (   0.9828597   0.3386240   0.0905870  )
       164           C   tau( 164) = (   0.5171412   0.8855620   1.1204010  )
       165           C   tau( 165) = (   0.0171412   0.9507171   0.9392269  )
       166           C   tau( 166) = (   0.4828597   0.2734690   1.9690409  )
       167           C   tau( 167) = (   0.4749681   0.4464051   0.8700001  )
       168           C   tau( 168) = (   0.9749672   0.1656879   1.1896278  )
       169           C   tau( 169) = (   0.5250328   1.0584981   0.1598139  )
       170           C   tau( 170) = (   0.9749672   0.4464051   0.1598139  )
       171           C   tau( 171) = (   0.5250328   0.7777809   1.1896278  )
       172           C   tau( 172) = (   0.0250328   1.0584981   0.8700001  )
       173           C   tau( 173) = (   0.4749681   0.1656879   1.8998141  )
       174           C   tau( 174) = (   0.4571249   0.6673789   0.7272060  )
       175           C   tau( 175) = (   0.9571249   1.1689002   1.3324219  )
       176           C   tau( 176) = (   0.5428751   0.0552859   0.3026080  )
       177           C   tau( 177) = (   0.9571249   0.6673789   0.3026080  )
       178           C   tau( 178) = (   0.5428751   0.5568071   1.3324219  )
       179           C   tau( 179) = (   0.0428751   0.0552859   0.7272060  )
       180           C   tau( 180) = (   0.4571249   1.1689002   1.7570199  )
       181           C   tau( 181) = (   0.2942473   0.7458725   0.8757502  )
       182           C   tau( 182) = (   0.7942473   1.0904066   1.1838777  )
       183           C   tau( 183) = (   0.7057527   0.1337795   0.1540638  )
       184           C   tau( 184) = (   0.7942473   0.7458725   0.1540638  )
       185           C   tau( 185) = (   0.7057527   0.4783135   1.1838777  )
       186           C   tau( 186) = (   0.2057527   0.1337795   0.8757502  )
       187           C   tau( 187) = (   0.2942473   1.0904066   1.9055642  )
       188           C   tau( 188) = (   0.0974687   0.1882096   1.6350042  )
       189           C   tau( 189) = (   0.5974687   0.4238834   0.4246237  )
       190           C   tau( 190) = (   0.9025322   0.8003026   1.4544377  )
       191           C   tau( 191) = (   0.5974687   0.1882096   1.4544377  )
       192           C   tau( 192) = (   0.9025322   1.0359765   0.4246237  )
       193           C   tau( 193) = (   0.4025322   0.8003026   1.6350042  )
       194           C   tau( 194) = (   0.0974687   0.4238834   0.6051902  )
       195           H   tau( 195) = (   0.1370105   0.1972919   1.7291395  )
       196           H   tau( 196) = (   0.6370105   0.4148012   0.3304884  )
       197           H   tau( 197) = (   0.8629895   0.8093849   1.3603024  )
       198           H   tau( 198) = (   0.6370105   0.1972919   1.3603024  )
       199           H   tau( 199) = (   0.8629895   1.0268942   0.3304884  )
       200           H   tau( 200) = (   0.3629895   0.8093849   1.7291395  )
       201           H   tau( 201) = (   0.1370105   0.4148012   0.6993255  )
       202           H   tau( 202) = (  -0.0021203   0.1685990   1.6471420  )
       203           H   tau( 203) = (   0.4978797   0.4434940   0.4124859  )
       204           H   tau( 204) = (   1.0021212   0.7806920   1.4422999  )
       205           H   tau( 205) = (   0.4978797   0.1685990   1.4422999  )
       206           H   tau( 206) = (   1.0021203   1.0555871   0.4124859  )
       207           H   tau( 207) = (   0.5021212   0.7806920   1.6471420  )
       208           H   tau( 208) = (  -0.0021203   0.4434940   0.6173280  )
       209           H   tau( 209) = (   0.1065181   0.2777979   1.5867702  )
       210           H   tau( 210) = (   0.6065181   0.3342951   0.4728577  )
       211           H   tau( 211) = (   0.8934828   0.8898910   1.5026717  )
       212           H   tau( 212) = (   0.6065181   0.2777979   1.5026717  )
       213           H   tau( 213) = (   0.8934819   0.9463881   0.4728577  )
       214           H   tau( 214) = (   0.3934828   0.8898910   1.5867702  )
       215           H   tau( 215) = (   0.1065181   0.3342951   0.5569563  )
       216           H   tau( 216) = (   0.2341983   0.2101244   1.4272336  )
       217           H   tau( 217) = (   0.7341983   0.4019686   0.6323943  )
       218           H   tau( 218) = (   0.7658017   0.8222175   1.6622083  )
       219           H   tau( 219) = (   0.7341983   0.2101244   1.6622083  )
       220           H   tau( 220) = (   0.7658017   1.0140616   0.6323943  )
       221           H   tau( 221) = (   0.2658017   0.8222175   1.4272336  )
       222           H   tau( 222) = (   0.2341983   0.4019686   0.3974197  )
       223           H   tau( 223) = (   0.5475459   0.2659020   0.9109368  )
       224           H   tau( 224) = (   0.0475459   0.3461910   1.1486911  )
       225           H   tau( 225) = (   0.4524541   0.8779950   0.1188771  )
       226           H   tau( 226) = (   0.0475459   0.2659020   0.1188771  )
       227           H   tau( 227) = (   0.4524541   0.9582840   1.1486911  )
       228           H   tau( 228) = (   0.9524541   0.8779950   0.9109368  )
       229           H   tau( 229) = (   0.5475459   0.3461910   1.9407508  )
       230           H   tau( 230) = (   0.4830497   0.1343504   1.0732341  )
       231           H   tau( 231) = (   0.9830497   0.4777426   0.9863938  )
       232           H   tau( 232) = (   0.5169503   0.7464434   2.0162078  )
       233           H   tau( 233) = (   0.9830497   0.1343504   2.0162078  )
       234           H   tau( 234) = (   0.5169503   1.0898357   0.9863938  )
       235           H   tau( 235) = (   0.0169503   0.7464434   1.0732341  )
       236           H   tau( 236) = (   0.4830497   0.4777426   0.0434201  )
       237           H   tau( 237) = (   0.2527889   0.5949621   1.0445036  )
       238           H   tau( 238) = (   0.7527889   0.0171309   1.0151243  )
       239           H   tau( 239) = (   0.7472111   1.2070552   2.0449383  )
       240           H   tau( 240) = (   0.7527889   0.5949621   2.0449383  )
       241           H   tau( 241) = (   0.7472111   0.6292239   1.0151243  )
       242           H   tau( 242) = (   0.2472111   1.2070552   1.0445036  )
       243           H   tau( 243) = (   0.2527889   0.0171309   0.0146896  )
       244           H   tau( 244) = (   0.2020421   0.9942849   1.5618295  )
       245           H   tau( 245) = (   0.7020421   0.8419942   0.4977984  )
       246           H   tau( 246) = (   0.7979579   0.3821919   1.5276123  )
       247           H   tau( 247) = (   0.7020421   0.9942849   1.5276123  )
       248           H   tau( 248) = (   0.7979579   0.2299012   0.4977984  )
       249           H   tau( 249) = (   0.2979579   0.3821919   1.5618295  )
       250           H   tau( 250) = (   0.2020421   0.8419942   0.5320156  )
       251           H   tau( 251) = (   0.0960612   1.1613568   1.6815384  )
       252           H   tau( 252) = (   0.5960612   0.6749222   0.3780895  )
       253           H   tau( 253) = (   0.9039388   0.5492638   1.4079034  )
       254           H   tau( 254) = (   0.5960612   1.1613568   1.4079034  )
       255           H   tau( 255) = (   0.9039388   0.0628292   0.3780895  )
       256           H   tau( 256) = (   0.4039388   0.5492638   1.6815384  )
       257           H   tau( 257) = (   0.0960612   0.6749222   0.6517245  )
       258           H   tau( 258) = (   0.2685979   0.4049672   1.1634111  )
       259           H   tau( 259) = (   0.7685979   0.2071258   0.8962168  )
       260           H   tau( 260) = (   0.7314021   1.0170602   1.9260307  )
       261           H   tau( 261) = (   0.7685979   0.4049672   1.9260307  )
       262           H   tau( 262) = (   0.7314021   0.8192189   0.8962168  )
       263           H   tau( 263) = (   0.2314021   1.0170602   1.1634111  )
       264           H   tau( 264) = (   0.2685979   0.2071258   0.1335972  )
       265           H   tau( 265) = (   0.2870140   0.2352153   1.2562092  )
       266           H   tau( 266) = (   0.7870140   0.3768777   0.8034187  )
       267           H   tau( 267) = (   0.7129860   0.8473084   1.8332327  )
       268           H   tau( 268) = (   0.7870140   0.2352153   1.8332327  )
       269           H   tau( 269) = (   0.7129860   0.9889707   0.8034187  )
       270           H   tau( 270) = (   0.2129860   0.8473084   1.2562092  )
       271           H   tau( 271) = (   0.2870140   0.3768777   0.2263953  )
       272           H   tau( 272) = (   0.5334757   0.4570903   0.7880973  )
       273           H   tau( 273) = (   0.0334757   0.1550028   1.2715306  )
       274           H   tau( 274) = (   0.4665243   1.0691833   0.2417166  )
       275           H   tau( 275) = (   0.0334757   0.4570903   0.2417166  )
       276           H   tau( 276) = (   0.4665243   0.7670958   1.2715306  )
       277           H   tau( 277) = (   0.9665243   1.0691833   0.7880973  )
       278           H   tau( 278) = (   0.5334757   0.1550028   1.8179113  )
       279           H   tau( 279) = (   0.2971672   0.8218328   0.8080353  )
       280           H   tau( 280) = (   0.7971672   1.0144462   1.2515926  )
       281           H   tau( 281) = (   0.7028328   0.2097398   0.2217787  )
       282           H   tau( 282) = (   0.7971672   0.8218328   0.2217787  )
       283           H   tau( 283) = (   0.7028328   0.4023532   1.2515926  )
       284           H   tau( 284) = (   0.2028328   0.2097398   0.8080353  )
       285           H   tau( 285) = (   0.2971672   1.0144462   1.8378492  )
       286           H   tau( 286) = (   0.3187313   0.7832911   0.9678604  )
       287           H   tau( 287) = (   0.8187313   1.0529880   1.0917675  )
       288           H   tau( 288) = (   0.6812687   0.1711980   0.0619536  )
       289           H   tau( 289) = (   0.8187313   0.7832911   0.0619536  )
       290           H   tau( 290) = (   0.6812687   0.4408950   1.0917675  )
       291           H   tau( 291) = (   0.1812687   0.1711980   0.9678604  )
       292           H   tau( 292) = (   0.3187313   1.0529880   1.9976743  )
       293           H   tau( 293) = (   0.4392214   0.7600332   0.6892557  )
       294           H   tau( 294) = (   0.9392214   1.0762459   1.3703722  )
       295           H   tau( 295) = (   0.5607786   0.1479402   0.3405582  )
       296           H   tau( 296) = (   0.9392214   0.7600332   0.3405582  )
       297           H   tau( 297) = (   0.5607786   0.4641529   1.3703722  )
       298           H   tau( 298) = (   0.0607786   0.1479402   0.6892557  )
       299           H   tau( 299) = (   0.4392214   1.0762459   1.7190697  )
       300           H   tau( 300) = (   0.1984085   0.7099097   0.8801112  )
       301           H   tau( 301) = (   0.6984085   1.1263693   1.1795167  )
       302           H   tau( 302) = (   0.8015915   0.0978167   0.1497027  )
       303           H   tau( 303) = (   0.6984085   0.7099097   0.1497027  )
       304           H   tau( 304) = (   0.8015915   0.5142763   1.1795167  )
       305           H   tau( 305) = (   0.3015915   0.0978167   0.8801112  )
       306           H   tau( 306) = (   0.1984085   1.1263693   1.9099252  )
       307           H   tau( 307) = (   0.3940563   1.0762104   1.3011088  )
       308           H   tau( 308) = (   0.8940563   0.7600687   0.7585191  )
       309           H   tau( 309) = (   0.6059437   0.4641173   1.7883330  )
       310           H   tau( 310) = (   0.8940563   1.0762104   1.7883330  )
       311           H   tau( 311) = (   0.6059437   0.1479757   0.7585191  )
       312           H   tau( 312) = (   0.1059437   0.4641173   1.3011088  )
       313           H   tau( 313) = (   0.3940563   0.7600687   0.2712949  )
       314           H   tau( 314) = (   0.4352070   0.5983187   0.6547825  )
       315           H   tau( 315) = (   0.9352070   0.0137743   1.4048454  )
       316           H   tau( 316) = (   0.5647930   1.2104117   0.3750314  )
       317           H   tau( 317) = (   0.9352070   0.5983187   0.3750314  )
       318           H   tau( 318) = (   0.5647930   0.6258673   1.4048454  )
       319           H   tau( 319) = (   0.0647930   1.2104117   0.6547825  )
       320           H   tau( 320) = (   0.4352070   0.0137743   1.6845965  )

     number of k points=    18
                       cart. coord. in units 2pi/alat
        k(    1) = (   0.0000000   0.0000000   0.0000000), wk =   0.0625000
        k(    2) = (   0.0000000   0.0000000  -0.2427623), wk =   0.0625000
        k(    3) = (   0.0000000   0.2042173   0.0000000), wk =   0.1250000
        k(    4) = (   0.0000000   0.2042173  -0.2427623), wk =   0.1250000
        k(    5) = (   0.0000000  -0.4084347   0.0000000), wk =   0.0625000
        k(    6) = (   0.0000000  -0.4084347  -0.2427623), wk =   0.0625000
        k(    7) = (   0.2500000   0.0000000   0.0000000), wk =   0.1250000
        k(    8) = (   0.2500000   0.0000000  -0.2427623), wk =   0.1250000
        k(    9) = (   0.2500000   0.2042173   0.0000000), wk =   0.2500000
        k(   10) = (   0.2500000   0.2042173  -0.2427623), wk =   0.2500000
        k(   11) = (   0.2500000  -0.4084347   0.0000000), wk =   0.1250000
        k(   12) = (   0.2500000  -0.4084347  -0.2427623), wk =   0.1250000
        k(   13) = (  -0.5000000   0.0000000   0.0000000), wk =   0.0625000
        k(   14) = (  -0.5000000   0.0000000  -0.2427623), wk =   0.0625000
        k(   15) = (  -0.5000000   0.2042173   0.0000000), wk =   0.1250000
        k(   16) = (  -0.5000000   0.2042173  -0.2427623), wk =   0.1250000
        k(   17) = (  -0.5000000  -0.4084347   0.0000000), wk =   0.0625000
        k(   18) = (  -0.5000000  -0.4084347  -0.2427623), wk =   0.0625000

     Dense  grid:   469205 G-vectors     FFT dimensions: (  72,  90, 150)

     Estimated max dynamical RAM per process >   12292.04MB

     Initial potential from superposition of free atoms

     starting charge  849.36928, renormalised to  864.00000
     Starting wfc are  824 randomized atomic wfcs

     total cpu time spent up to now is     5403.9 secs

     per-process dynamical memory:   990.9 Mb

     Self-consistent Calculation

     iteration #  1     ecut=    30.00 Ry     beta=0.70
     Davidson diagonalization with overlap
     ethr =  1.00E-02,  avg # of iterations =  2.0

     total cpu time spent up to now is    15792.8 secs

     total energy              =   -2475.13932955 Ry
     Harris-Foulkes estimate   =   -2511.60178805 Ry
     estimated scf accuracy    <      56.67664057 Ry

     iteration #  2     ecut=    30.00 Ry     beta=0.70
     Davidson diagonalization with overlap
     ethr =  6.56E-03,  avg # of iterations =  3.0

     total cpu time spent up to now is    26273.8 secs

     total energy              =   -2481.77135251 Ry
     Harris-Foulkes estimate   =   -2496.87223256 Ry
     estimated scf accuracy    <      26.56049922 Ry

     iteration #  3     ecut=    30.00 Ry     beta=0.70
     Davidson diagonalization with overlap
     ethr =  3.07E-03,  avg # of iterations =  4.0

     total cpu time spent up to now is    37383.1 secs

     total energy              =   -2488.24958328 Ry
     Harris-Foulkes estimate   =   -2490.71057217 Ry
     estimated scf accuracy    <       4.71503007 Ry

     iteration #  4     ecut=    30.00 Ry     beta=0.70
     Davidson diagonalization with overlap
     ethr =  5.46E-04,  avg # of iterations =  4.0

     total cpu time spent up to now is    47845.6 secs

     total energy              =   -2489.32356549 Ry
     Harris-Foulkes estimate   =   -2489.74892701 Ry
     estimated scf accuracy    <       0.87967552 Ry

     iteration #  5     ecut=    30.00 Ry     beta=0.70
     Davidson diagonalization with overlap
     ethr =  1.02E-04,  avg # of iterations =  4.0

     total cpu time spent up to now is    57767.4 secs

     total energy              =   -2489.50494029 Ry
     Harris-Foulkes estimate   =   -2489.55593438 Ry
     estimated scf accuracy    <       0.11215937 Ry

     iteration #  6     ecut=    30.00 Ry     beta=0.70
     Davidson diagonalization with overlap
     ethr =  1.30E-05,  avg # of iterations =  5.0

     total cpu time spent up to now is    67927.9 secs

     total energy              =   -2489.53003775 Ry
     Harris-Foulkes estimate   =   -2489.53578285 Ry
     estimated scf accuracy    <       0.01333519 Ry

     iteration #  7     ecut=    30.00 Ry     beta=0.70
     Davidson diagonalization with overlap
     ethr =  1.54E-06,  avg # of iterations =  5.0

     total cpu time spent up to now is    78331.1 secs

     total energy              =   -2489.53265577 Ry
     Harris-Foulkes estimate   =   -2489.53467456 Ry
     estimated scf accuracy    <       0.00488303 Ry

     iteration #  8     ecut=    30.00 Ry     beta=0.70
     Davidson diagonalization with overlap
     ethr =  5.65E-07,  avg # of iterations =  4.2

     total cpu time spent up to now is    87712.3 secs

     total energy              =   -2489.53359797 Ry
     Harris-Foulkes estimate   =   -2489.53379767 Ry
     estimated scf accuracy    <       0.00044416 Ry

     iteration #  9     ecut=    30.00 Ry     beta=0.70
     Davidson diagonalization with overlap
     ethr =  5.14E-08,  avg # of iterations =  4.0

     total cpu time spent up to now is    98083.3 secs

     total energy              =   -2489.53371207 Ry
     Harris-Foulkes estimate   =   -2489.53375652 Ry
     estimated scf accuracy    <       0.00010425 Ry

     iteration # 10     ecut=    30.00 Ry     beta=0.70
     Davidson diagonalization with overlap
     ethr =  1.21E-08,  avg # of iterations =  4.0

     total cpu time spent up to now is   107736.5 secs

     total energy              =   -2489.53373334 Ry
     Harris-Foulkes estimate   =   -2489.53373789 Ry
     estimated scf accuracy    <       0.00000974 Ry

     iteration # 11     ecut=    30.00 Ry     beta=0.70
     Davidson diagonalization with overlap
     ethr =  1.13E-09,  avg # of iterations =  4.0

     total cpu time spent up to now is   118248.6 secs

     total energy              =   -2489.53373582 Ry
     Harris-Foulkes estimate   =   -2489.53373620 Ry
     estimated scf accuracy    <       0.00000102 Ry

     iteration # 12     ecut=    30.00 Ry     beta=0.70
     Davidson diagonalization with overlap
     ethr =  1.18E-10,  avg # of iterations =  4.0

     total cpu time spent up to now is   128423.7 secs

     total energy              =   -2489.53373605 Ry
     Harris-Foulkes estimate   =   -2489.53373614 Ry
     estimated scf accuracy    <       0.00000022 Ry

     iteration # 13     ecut=    30.00 Ry     beta=0.70
     Davidson diagonalization with overlap
     ethr =  2.60E-11,  avg # of iterations =  4.0

     total cpu time spent up to now is   138426.2 secs

     End of self-consistent calculation

          k = 0.0000 0.0000 0.0000 ( 58633 PWs)   bands (ev):

   -20.6299 -20.6297 -20.6293 -20.6290 -20.6281 -20.6279 -20.6275 -20.6273
   -19.5002 -19.5001 -19.4988 -19.4987 -19.4985 -19.4983 -19.4971 -19.4969
   -18.1928 -18.1927 -18.1912 -18.1911 -18.1795 -18.1794 -18.1782 -18.1780
   -15.5285 -15.5248 -15.5244 -15.5227 -15.5128 -15.5081 -15.5069 -15.5061
   -15.4078 -15.4030 -15.3906 -15.3880 -15.3828 -15.3815 -15.3788 -15.3784
   -13.9517 -13.9480 -13.9453 -13.9445 -13.9440 -13.9369 -13.9258 -13.9206
   -13.3237 -13.3213 -13.3206 -13.3075 -13.2940 -13.2708 -13.2630 -13.2610
   -13.0835 -13.0628 -13.0441 -13.0358 -13.0182 -13.0062 -12.9932 -12.9875
   -12.8517 -12.8497 -12.8346 -12.8337 -12.8128 -12.8117 -12.7835 -12.7822
   -12.4324 -12.4120 -12.4060 -12.4034 -12.3970 -12.3927 -12.3827 -12.3702
   -12.0219 -12.0193 -12.0193 -12.0167 -11.9886 -11.9863 -11.9628 -11.9612
   -11.0747 -11.0574 -11.0552 -11.0546 -11.0419 -11.0395 -11.0232 -10.9998
   -10.8861 -10.8704 -10.8588 -10.8546 -10.8529 -10.8444 -10.8393 -10.8087
   -10.1035 -10.1011 -10.0967 -10.0700 -10.0656 -10.0627 -10.0611 -10.0343
    -9.4954  -9.4917  -9.4814  -9.4754  -9.3833  -9.3828  -9.3684  -9.3550
    -9.1840  -9.1826  -9.1159  -9.1147  -9.1146  -9.1127  -9.0783  -9.0772
    -8.6806  -8.6719  -8.6502  -8.6070  -8.5920  -8.5707  -8.5236  -8.5064
    -8.3617  -8.3308  -8.2535  -8.2328  -8.1754  -8.1617  -8.1539  -8.1510
    -7.6044  -7.5891  -7.5756  -7.5430  -7.5088  -7.5010  -7.4894  -7.4721
    -7.2086  -7.1982  -7.1741  -7.1613  -7.1557  -7.1529  -7.0843  -7.0745
    -6.8149  -6.7972  -6.7899  -6.7799  -6.7798  -6.7411  -6.7401  -6.7286
    -6.6080  -6.6049  -6.6009  -6.5973  -6.5950  -6.5944  -6.5709  -6.5644
    -6.1819  -6.1618  -6.1281  -6.1125  -6.0862  -6.0851  -6.0824  -6.0792
    -6.0791  -6.0747  -6.0689  -6.0308  -5.9938  -5.9884  -5.9801  -5.9693
    -5.7049  -5.6937  -5.6881  -5.6849  -5.5897  -5.5870  -5.5724  -5.5656
    -5.5553  -5.5516  -5.5486  -5.5451  -5.4372  -5.4001  -5.3824  -5.3663
    -5.2859  -5.2679  -5.2601  -5.2512  -5.1366  -5.1243  -5.1136  -5.1038
    -5.0953  -5.0769  -5.0635  -5.0596  -5.0347  -5.0166  -4.9989  -4.9754
    -4.9533  -4.9450  -4.9230  -4.8299  -4.8256  -4.8201  -4.8152  -4.6754
    -4.6698  -4.6554  -4.6544  -4.6279  -4.6221  -4.6111  -4.5974  -4.5909
    -4.5842  -4.5748  -4.5734  -4.5656  -4.5518  -4.5442  -4.5263  -4.5152
    -4.4997  -4.4497  -4.4406  -4.4186  -4.3821  -4.3769  -4.3635  -4.2868
    -4.2850  -4.2825  -4.2749  -4.2726  -4.2437  -4.2399  -4.2375  -4.2334
    -4.2304  -4.2026  -4.1875  -4.1790  -4.1311  -4.1258  -4.0979  -4.0772
    -3.9847  -3.9679  -3.9674  -3.9624  -3.9620  -3.9565  -3.9539  -3.9508
    -3.9502  -3.9224  -3.9029  -3.8645  -3.8497  -3.8475  -3.8396  -3.8391
    -3.8339  -3.8268  -3.8087  -3.7977  -3.7819  -3.7682  -3.7666  -3.7152
    -3.6465  -3.6016  -3.5694  -3.5423  -3.5354  -3.5257  -3.4957  -3.4893
    -3.4155  -3.4100  -3.3833  -3.3812  -3.3762  -3.3657  -3.3516  -3.3186
    -3.3104  -3.2982  -3.2982  -3.2796  -3.2745  -3.2645  -3.2574  -3.2448
    -3.2056  -3.2040  -3.1959  -3.1939  -3.1916  -3.1702  -3.1648  -3.1576
    -3.1408  -3.1255  -3.1204  -3.1069  -3.0902  -3.0873  -3.0635  -3.0603
    -3.0460  -3.0389  -2.9615  -2.9427  -2.9158  -2.8939  -2.8745  -2.8697
    -2.8065  -2.8017  -2.7330  -2.7297  -2.7212  -2.6906  -2.6784  -2.6780
    -2.5470  -2.5371  -2.4780  -2.4746  -2.2365  -2.2160  -2.2135  -2.1680
    -2.1605  -2.1340  -2.0814  -2.0708  -2.0497  -2.0495  -2.0232  -2.0178
    -2.0124  -2.0039  -1.9970  -1.9896  -1.9859  -1.9747  -1.9746  -1.9665
    -1.9322  -1.9268  -1.9157  -1.8889  -1.8631  -1.8581  -1.8015  -1.7929
    -0.7817  -0.7732  -0.7622  -0.7616  -0.7562  -0.7154  -0.6928  -0.6571
    -0.6551  -0.6506  -0.6427  -0.6239  -0.5846  -0.5828  -0.5350  -0.5258
    -0.5249  -0.5225  -0.4853  -0.4835  -0.4604  -0.4510  -0.4505  -0.4501
    -0.2478  -0.2182  -0.2152  -0.1985  -0.1843  -0.1660  -0.1655  -0.1321
     0.3245   0.3362   0.3505   0.3563   0.3855   0.3883   0.3933   0.4223
     1.0409   1.0420   1.0452   1.0635   1.0749   1.0862   1.1740   1.1926

          k = 0.0000 0.0000-0.2428 ( 58656 PWs)   bands (ev):

   -20.6299 -20.6298 -20.6292 -20.6291 -20.6280 -20.6279 -20.6274 -20.6274
   -19.5002 -19.5001 -19.4988 -19.4987 -19.4984 -19.4984 -19.4970 -19.4970
   -18.1928 -18.1927 -18.1911 -18.1911 -18.1795 -18.1794 -18.1781 -18.1781
   -15.5259 -15.5258 -15.5248 -15.5247 -15.5093 -15.5093 -15.5073 -15.5073
   -15.4054 -15.4053 -15.3894 -15.3893 -15.3808 -15.3807 -15.3800 -15.3799
   -13.9509 -13.9509 -13.9468 -13.9468 -13.9331 -13.9330 -13.9278 -13.9277
   -13.3243 -13.3243 -13.3146 -13.3146 -13.2756 -13.2756 -13.2662 -13.2662
   -13.0736 -13.0736 -13.0398 -13.0398 -13.0127 -13.0127 -12.9903 -12.9903
   -12.8508 -12.8507 -12.8342 -12.8341 -12.8123 -12.8122 -12.7829 -12.7828
   -12.4177 -12.4177 -12.4045 -12.4044 -12.3944 -12.3943 -12.3814 -12.3813
   -12.0206 -12.0206 -12.0181 -12.0180 -11.9874 -11.9874 -11.9620 -11.9620
   -11.0710 -11.0710 -11.0435 -11.0434 -11.0431 -11.0431 -11.0156 -11.0155
   -10.8812 -10.8812 -10.8523 -10.8522 -10.8507 -10.8507 -10.8237 -10.8236
   -10.1050 -10.1050 -10.0767 -10.0767 -10.0702 -10.0702 -10.0451 -10.0451
    -9.4901  -9.4901  -9.4823  -9.4823  -9.3846  -9.3845  -9.3604  -9.3603
    -9.1833  -9.1833  -9.1155  -9.1154  -9.1136  -9.1136  -9.0777  -9.0776
    -8.6812  -8.6812  -8.6065  -8.6065  -8.6004  -8.6003  -8.5141  -8.5141
    -8.3461  -8.3460  -8.2433  -8.2432  -8.1636  -8.1635  -8.1563  -8.1563
    -7.5970  -7.5969  -7.5617  -7.5617  -7.5048  -7.5047  -7.4785  -7.4784
    -7.2034  -7.2034  -7.1638  -7.1637  -7.1585  -7.1584  -7.0795  -7.0794
    -6.8059  -6.8059  -6.7851  -6.7851  -6.7628  -6.7627  -6.7327  -6.7327
    -6.6066  -6.6066  -6.5991  -6.5991  -6.5944  -6.5944  -6.5671  -6.5670
    -6.1761  -6.1761  -6.1121  -6.1121  -6.0874  -6.0874  -6.0824  -6.0823
    -6.0747  -6.0746  -6.0516  -6.0516  -5.9890  -5.9890  -5.9786  -5.9786
    -5.6999  -5.6999  -5.6869  -5.6869  -5.5893  -5.5892  -5.5611  -5.5610
    -5.5585  -5.5585  -5.5459  -5.5458  -5.4216  -5.4216  -5.3710  -5.3710
    -5.2929  -5.2929  -5.2399  -5.2399  -5.1272  -5.1272  -5.1093  -5.1092
    -5.0881  -5.0880  -5.0761  -5.0761  -5.0106  -5.0106  -4.9776  -4.9776
    -4.9450  -4.9450  -4.9200  -4.9199  -4.8252  -4.8252  -4.7144  -4.7144
    -4.6474  -4.6473  -4.6445  -4.6445  -4.6369  -4.6369  -4.5949  -4.5949
    -4.5948  -4.5948  -4.5483  -4.5483  -4.5364  -4.5364  -4.5217  -4.5217
    -4.4919  -4.4919  -4.4360  -4.4360  -4.3592  -4.3591  -4.3201  -4.3201
    -4.2950  -4.2949  -4.2683  -4.2682  -4.2478  -4.2477  -4.2317  -4.2317
    -4.2234  -4.2233  -4.1903  -4.1903  -4.1051  -4.1051  -4.1006  -4.1006
    -3.9810  -3.9810  -3.9639  -3.9639  -3.9578  -3.9577  -3.9506  -3.9505
    -3.9385  -3.9385  -3.8706  -3.8706  -3.8490  -3.8490  -3.8438  -3.8437
    -3.8216  -3.8216  -3.8186  -3.8186  -3.7869  -3.7869  -3.7337  -3.7337
    -3.6059  -3.6059  -3.5649  -3.5649  -3.5405  -3.5405  -3.4943  -3.4942
    -3.4106  -3.4105  -3.3788  -3.3787  -3.3754  -3.3754  -3.3146  -3.3146
    -3.3014  -3.3013  -3.2966  -3.2965  -3.2699  -3.2699  -3.2649  -3.2649
    -3.2070  -3.2069  -3.1929  -3.1929  -3.1739  -3.1738  -3.1575  -3.1574
    -3.1398  -3.1398  -3.1114  -3.1114  -3.0774  -3.0774  -3.0649  -3.0649
    -3.0520  -3.0519  -2.9514  -2.9513  -2.9053  -2.9053  -2.8720  -2.8719
    -2.8045  -2.8045  -2.7314  -2.7314  -2.7060  -2.7060  -2.6783  -2.6783
    -2.5429  -2.5429  -2.4751  -2.4751  -2.2276  -2.2276  -2.1998  -2.1997
    -2.1253  -2.1253  -2.0786  -2.0786  -2.0415  -2.0415  -2.0394  -2.0394
    -2.0165  -2.0165  -2.0040  -2.0040  -1.9777  -1.9776  -1.9500  -1.9500
    -1.9352  -1.9352  -1.8996  -1.8996  -1.8594  -1.8593  -1.7977  -1.7977
    -0.7787  -0.7787  -0.7667  -0.7667  -0.7240  -0.7240  -0.6887  -0.6887
    -0.6499  -0.6498  -0.6299  -0.6299  -0.5843  -0.5842  -0.5313  -0.5312
    -0.5239  -0.5238  -0.4720  -0.4720  -0.4653  -0.4653  -0.4502  -0.4501
    -0.2388  -0.2388  -0.1939  -0.1938  -0.1890  -0.1890  -0.1422  -0.1422
     0.3346   0.3347   0.3410   0.3411   0.3932   0.3933   0.4100   0.4100
     1.0430   1.0431   1.0564   1.0565   1.0748   1.0748   1.1843   1.1844

          k = 0.0000 0.2042 0.0000 ( 58699 PWs)   bands (ev):

   -20.6297 -20.6294 -20.6291 -20.6288 -20.6284 -20.6281 -20.6278 -20.6275
   -19.5000 -19.4998 -19.4988 -19.4986 -19.4985 -19.4984 -19.4974 -19.4972
   -18.1926 -18.1925 -18.1914 -18.1913 -18.1793 -18.1792 -18.1784 -18.1782
   -15.5281 -15.5257 -15.5236 -15.5227 -15.5120 -15.5089 -15.5066 -15.5061
   -15.4060 -15.4018 -15.3943 -15.3921 -15.3809 -15.3808 -15.3779 -15.3778
   -13.9528 -13.9502 -13.9484 -13.9462 -13.9390 -13.9359 -13.9240 -13.9206
   -13.3239 -13.3216 -13.3189 -13.3093 -13.2901 -13.2707 -13.2670 -13.2624
   -13.0737 -13.0537 -13.0366 -13.0283 -13.0278 -13.0135 -13.0016 -12.9932
   -12.8508 -12.8493 -12.8394 -12.8387 -12.8059 -12.8053 -12.7860 -12.7853
   -12.4279 -12.4117 -12.4085 -12.4037 -12.3974 -12.3899 -12.3837 -12.3750
   -12.0222 -12.0208 -12.0195 -12.0180 -11.9842 -11.9818 -11.9663 -11.9645
   -11.0710 -11.0590 -11.0556 -11.0518 -11.0415 -11.0330 -11.0272 -11.0039
   -10.8820 -10.8698 -10.8630 -10.8609 -10.8503 -10.8437 -10.8362 -10.8115
   -10.1000 -10.0936 -10.0913 -10.0758 -10.0691 -10.0661 -10.0577 -10.0376
    -9.4757  -9.4743  -9.4663  -9.4568  -9.3975  -9.3974  -9.3846  -9.3710
    -9.1768  -9.1752  -9.1274  -9.1262  -9.1101  -9.1094  -9.0834  -9.0828
    -8.6776  -8.6609  -8.6313  -8.6236  -8.5965  -8.5711  -8.5365  -8.5307
    -8.3504  -8.3346  -8.2701  -8.2700  -8.1528  -8.1501  -8.1497  -8.1370
    -7.6075  -7.5919  -7.5867  -7.5613  -7.5014  -7.4872  -7.4870  -7.4633
    -7.2009  -7.1920  -7.1662  -7.1603  -7.1592  -7.1400  -7.0958  -7.0846
    -6.8025  -6.7939  -6.7882  -6.7822  -6.7678  -6.7598  -6.7410  -6.7327
    -6.6093  -6.6028  -6.5980  -6.5965  -6.5942  -6.5921  -6.5751  -6.5704
    -6.1526  -6.1420  -6.1067  -6.1057  -6.1022  -6.1000  -6.0886  -6.0683
    -6.0663  -6.0560  -6.0492  -6.0317  -6.0104  -6.0060  -5.9885  -5.9772
    -5.7048  -5.6948  -5.6941  -5.6876  -5.5797  -5.5719  -5.5643  -5.5541
    -5.5524  -5.5386  -5.5273  -5.5143  -5.4402  -5.4340  -5.3947  -5.3944
    -5.2691  -5.2506  -5.2333  -5.2256  -5.1612  -5.1538  -5.1372  -5.1318
    -5.1058  -5.1018  -5.0621  -5.0437  -5.0365  -5.0188  -5.0016  -4.9958
    -4.9819  -4.9543  -4.8913  -4.8254  -4.8193  -4.8144  -4.7956  -4.7031
    -4.6629  -4.6571  -4.6465  -4.6240  -4.6157  -4.6126  -4.6106  -4.6099
    -4.6045  -4.5986  -4.5862  -4.5648  -4.5599  -4.5347  -4.5224  -4.5122
    -4.5086  -4.4540  -4.4342  -4.4037  -4.3888  -4.3817  -4.3743  -4.3170
    -4.3059  -4.3007  -4.2821  -4.2813  -4.2544  -4.2371  -4.2365  -4.2321
    -4.2087  -4.2079  -4.1924  -4.1710  -4.1187  -4.1165  -4.0945  -4.0768
    -3.9824  -3.9701  -3.9676  -3.9653  -3.9645  -3.9605  -3.9569  -3.9531
    -3.9375  -3.8925  -3.8870  -3.8634  -3.8499  -3.8480  -3.8313  -3.8261
    -3.8169  -3.8126  -3.7911  -3.7819  -3.7722  -3.7705  -3.7654  -3.7401
    -3.6221  -3.6012  -3.5642  -3.5569  -3.5348  -3.5340  -3.5083  -3.4951
    -3.4400  -3.4279  -3.3994  -3.3777  -3.3722  -3.3695  -3.3564  -3.3294
    -3.3195  -3.3148  -3.3095  -3.2722  -3.2619  -3.2577  -3.2392  -3.2387
    -3.2052  -3.1993  -3.1892  -3.1865  -3.1844  -3.1660  -3.1579  -3.1488
    -3.1474  -3.1306  -3.1227  -3.1195  -3.1073  -3.0954  -3.0760  -3.0627
    -3.0256  -2.9999  -2.9530  -2.9356  -2.9295  -2.9061  -2.8881  -2.8853
    -2.8030  -2.7863  -2.7547  -2.7350  -2.7228  -2.7175  -2.7032  -2.6905
    -2.4492  -2.4434  -2.3995  -2.3954  -2.2598  -2.2188  -2.2071  -2.1758
    -2.1544  -2.1247  -2.0992  -2.0908  -2.0705  -2.0691  -2.0680  -2.0529
    -2.0489  -2.0222  -1.9967  -1.9963  -1.9917  -1.9913  -1.9451  -1.9345
    -1.9300  -1.9267  -1.9225  -1.9034  -1.8567  -1.8517  -1.8078  -1.7996
    -0.7828  -0.7769  -0.7599  -0.7588  -0.7567  -0.7296  -0.6943  -0.6751
    -0.6667  -0.6605  -0.6363  -0.6337  -0.5600  -0.5584  -0.5271  -0.5236
    -0.5206  -0.5110  -0.4918  -0.4718  -0.4614  -0.4558  -0.4506  -0.4503
    -0.2410  -0.2107  -0.2089  -0.2062  -0.1775  -0.1743  -0.1735  -0.1407
     0.3277   0.3380   0.3458   0.3526   0.3858   0.3917   0.3932   0.4168
     1.0279   1.0346   1.0404   1.0664   1.0952   1.1019   1.1612   1.1767

          k = 0.0000 0.2042-0.2428 ( 58678 PWs)   bands (ev):

   -20.6296 -20.6296 -20.6289 -20.6289 -20.6283 -20.6282 -20.6277 -20.6276
   -19.4999 -19.4999 -19.4987 -19.4986 -19.4985 -19.4985 -19.4973 -19.4972
   -18.1925 -18.1925 -18.1914 -18.1913 -18.1793 -18.1792 -18.1783 -18.1783
   -15.5256 -15.5256 -15.5248 -15.5248 -15.5090 -15.5090 -15.5075 -15.5075
   -15.4039 -15.4038 -15.3932 -15.3931 -15.3795 -15.3794 -15.3794 -15.3793
   -13.9515 -13.9514 -13.9489 -13.9489 -13.9309 -13.9308 -13.9275 -13.9274
   -13.3226 -13.3226 -13.3158 -13.3157 -13.2749 -13.2749 -13.2684 -13.2684
   -13.0642 -13.0642 -13.0322 -13.0322 -13.0214 -13.0213 -12.9971 -12.9971
   -12.8501 -12.8500 -12.8391 -12.8390 -12.8056 -12.8055 -12.7857 -12.7856
   -12.4143 -12.4142 -12.4047 -12.4046 -12.3943 -12.3943 -12.3853 -12.3853
   -12.0209 -12.0208 -12.0194 -12.0194 -11.9829 -11.9829 -11.9654 -11.9653
   -11.0652 -11.0652 -11.0456 -11.0455 -11.0408 -11.0408 -11.0212 -11.0212
   -10.8772 -10.8771 -10.8570 -10.8570 -10.8465 -10.8465 -10.8271 -10.8271
   -10.0997 -10.0997 -10.0751 -10.0750 -10.0713 -10.0713 -10.0490 -10.0490
    -9.4731  -9.4730  -9.4639  -9.4638  -9.3989  -9.3989  -9.3765  -9.3765
    -9.1760  -9.1759  -9.1269  -9.1268  -9.1098  -9.1097  -9.0831  -9.0831
    -8.6693  -8.6693  -8.6153  -8.6152  -8.5983  -8.5982  -8.5323  -8.5322
    -8.3414  -8.3414  -8.2697  -8.2696  -8.1513  -8.1513  -8.1437  -8.1436
    -7.6001  -7.6001  -7.5758  -7.5757  -7.4938  -7.4937  -7.4737  -7.4736
    -7.1964  -7.1964  -7.1633  -7.1632  -7.1497  -7.1496  -7.0903  -7.0902
    -6.7985  -6.7985  -6.7779  -6.7779  -6.7697  -6.7697  -6.7386  -6.7386
    -6.6046  -6.6046  -6.5997  -6.5996  -6.5919  -6.5919  -6.5722  -6.5722
    -6.1510  -6.1510  -6.1033  -6.1033  -6.1020  -6.1019  -6.0688  -6.0687
    -6.0625  -6.0624  -6.0476  -6.0476  -6.0018  -6.0017  -5.9894  -5.9894
    -5.6999  -5.6998  -5.6916  -5.6916  -5.5733  -5.5733  -5.5613  -5.5613
    -5.5469  -5.5469  -5.5173  -5.5173  -5.4366  -5.4366  -5.3943  -5.3943
    -5.2731  -5.2731  -5.2151  -5.2151  -5.1528  -5.1528  -5.1284  -5.1284
    -5.1190  -5.1189  -5.0605  -5.0605  -5.0263  -5.0263  -5.0067  -5.0066
    -4.9175  -4.9175  -4.9158  -4.9158  -4.8103  -4.8103  -4.7380  -4.7379
    -4.6528  -4.6528  -4.6458  -4.6457  -4.6172  -4.6172  -4.5934  -4.5933
    -4.5932  -4.5932  -4.5650  -4.5650  -4.5586  -4.5586  -4.5422  -4.5422
    -4.4750  -4.4749  -4.4255  -4.4255  -4.3778  -4.3778  -4.3411  -4.3411
    -4.3052  -4.3052  -4.2773  -4.2773  -4.2480  -4.2480  -4.2250  -4.2249
    -4.2145  -4.2145  -4.1905  -4.1905  -4.1060  -4.1060  -4.0944  -4.0943
    -3.9782  -3.9781  -3.9634  -3.9633  -3.9608  -3.9607  -3.9537  -3.9537
    -3.9197  -3.9196  -3.8620  -3.8620  -3.8408  -3.8408  -3.8352  -3.8352
    -3.8133  -3.8132  -3.8031  -3.8031  -3.7849  -3.7849  -3.7429  -3.7428
    -3.5941  -3.5940  -3.5630  -3.5630  -3.5517  -3.5517  -3.4969  -3.4968
    -3.4300  -3.4299  -3.3941  -3.3941  -3.3701  -3.3700  -3.3425  -3.3425
    -3.3146  -3.3146  -3.2883  -3.2883  -3.2510  -3.2510  -3.2473  -3.2473
    -3.2011  -3.2010  -3.1876  -3.1876  -3.1701  -3.1701  -3.1662  -3.1661
    -3.1379  -3.1379  -3.1155  -3.1155  -3.0928  -3.0927  -3.0823  -3.0823
    -3.0094  -3.0093  -2.9416  -2.9415  -2.9237  -2.9236  -2.8856  -2.8855
    -2.7944  -2.7944  -2.7394  -2.7394  -2.7260  -2.7260  -2.6957  -2.6957
    -2.4463  -2.4462  -2.3976  -2.3975  -2.2391  -2.2390  -2.1954  -2.1954
    -2.1403  -2.1402  -2.0779  -2.0779  -2.0741  -2.0741  -2.0607  -2.0606
    -2.0355  -2.0355  -2.0301  -2.0301  -1.9530  -1.9530  -1.9527  -1.9526
    -1.9303  -1.9303  -1.9106  -1.9106  -1.8538  -1.8537  -1.8043  -1.8043
    -0.7781  -0.7780  -0.7698  -0.7697  -0.7231  -0.7231  -0.7029  -0.7029
    -0.6496  -0.6496  -0.6453  -0.6452  -0.5588  -0.5587  -0.5242  -0.5241
    -0.5162  -0.5162  -0.4745  -0.4745  -0.4640  -0.4639  -0.4507  -0.4506
    -0.2320  -0.2319  -0.1968  -0.1968  -0.1871  -0.1870  -0.1506  -0.1506
     0.3356   0.3357   0.3401   0.3401   0.3945   0.3946   0.4062   0.4062
     1.0343   1.0344   1.0492   1.0493   1.0978   1.0979   1.1698   1.1699

          k = 0.0000-0.4084 0.0000 ( 58700 PWs)   bands (ev):

   -20.6290 -20.6290 -20.6288 -20.6288 -20.6284 -20.6284 -20.6282 -20.6281
   -19.4994 -19.4993 -19.4992 -19.4992 -19.4980 -19.4980 -19.4978 -19.4978
   -18.1920 -18.1920 -18.1919 -18.1919 -18.1788 -18.1788 -18.1787 -18.1787
   -15.5270 -15.5269 -15.5229 -15.5228 -15.5104 -15.5104 -15.5063 -15.5062
   -15.4010 -15.4009 -15.3979 -15.3978 -15.3801 -15.3800 -15.3773 -15.3773
   -13.9532 -13.9532 -13.9482 -13.9482 -13.9359 -13.9359 -13.9215 -13.9214
   -13.3233 -13.3233 -13.3139 -13.3139 -13.2800 -13.2799 -13.2658 -13.2658
   -13.0507 -13.0506 -13.0328 -13.0327 -13.0192 -13.0192 -13.0102 -13.0102
   -12.8463 -12.8463 -12.8461 -12.8460 -12.7943 -12.7943 -12.7940 -12.7940
   -12.4164 -12.4163 -12.4106 -12.4105 -12.3864 -12.3864 -12.3862 -12.3862
   -12.0223 -12.0223 -12.0193 -12.0193 -11.9749 -11.9748 -11.9725 -11.9725
   -11.0657 -11.0657 -11.0483 -11.0483 -11.0395 -11.0395 -11.0164 -11.0164
   -10.8722 -10.8722 -10.8631 -10.8630 -10.8542 -10.8542 -10.8204 -10.8204
   -10.0885 -10.0885 -10.0799 -10.0799 -10.0785 -10.0785 -10.0468 -10.0468
    -9.4343  -9.4343  -9.4322  -9.4322  -9.4276  -9.4276  -9.4127  -9.4127
    -9.1548  -9.1548  -9.1538  -9.1537  -9.0965  -9.0964  -9.0964  -9.0964
    -8.6668  -8.6668  -8.6161  -8.6161  -8.5759  -8.5759  -8.5684  -8.5683
    -8.3168  -8.3168  -8.3127  -8.3127  -8.1470  -8.1470  -8.1273  -8.1272
    -7.6036  -7.6036  -7.5852  -7.5852  -7.4901  -7.4901  -7.4657  -7.4657
    -7.1821  -7.1821  -7.1753  -7.1753  -7.1259  -7.1259  -7.1109  -7.1109
    -6.7891  -6.7891  -6.7788  -6.7788  -6.7701  -6.7701  -6.7442  -6.7441
    -6.6066  -6.6066  -6.5946  -6.5945  -6.5848  -6.5847  -6.5846  -6.5846
    -6.1191  -6.1191  -6.1189  -6.1189  -6.0824  -6.0823  -6.0634  -6.0634
    -6.0550  -6.0550  -6.0379  -6.0379  -6.0146  -6.0146  -6.0082  -6.0082
    -5.7039  -5.7039  -5.6929  -5.6929  -5.5729  -5.5729  -5.5538  -5.5538
    -5.5023  -5.5023  -5.4744  -5.4744  -5.4644  -5.4643  -5.4422  -5.4422
    -5.2161  -5.2161  -5.2137  -5.2137  -5.1791  -5.1791  -5.1583  -5.1583
    -5.1247  -5.1247  -5.0832  -5.0832  -5.0381  -5.0381  -5.0132  -5.0132
    -4.9497  -4.9497  -4.8637  -4.8637  -4.8014  -4.8014  -4.7588  -4.7588
    -4.6579  -4.6579  -4.6414  -4.6414  -4.6355  -4.6355  -4.6110  -4.6110
    -4.6028  -4.6028  -4.5461  -4.5461  -4.5362  -4.5362  -4.5255  -4.5254
    -4.5100  -4.5100  -4.4461  -4.4461  -4.3819  -4.3819  -4.3452  -4.3452
    -4.3084  -4.3084  -4.2805  -4.2805  -4.2541  -4.2541  -4.2391  -4.2391
    -4.2039  -4.2039  -4.1781  -4.1781  -4.1073  -4.1072  -4.0859  -4.0859
    -3.9751  -3.9751  -3.9660  -3.9660  -3.9625  -3.9625  -3.9612  -3.9612
    -3.9049  -3.9049  -3.8463  -3.8463  -3.8381  -3.8381  -3.8241  -3.8241
    -3.8203  -3.8203  -3.7791  -3.7791  -3.7621  -3.7620  -3.7589  -3.7589
    -3.5927  -3.5927  -3.5840  -3.5840  -3.5557  -3.5556  -3.5025  -3.5025
    -3.3999  -3.3999  -3.3991  -3.3991  -3.3736  -3.3736  -3.3583  -3.3583
    -3.3506  -3.3506  -3.2997  -3.2997  -3.2364  -3.2364  -3.2355  -3.2355
    -3.1908  -3.1908  -3.1776  -3.1776  -3.1670  -3.1670  -3.1656  -3.1656
    -3.1408  -3.1408  -3.1221  -3.1220  -3.1099  -3.1099  -3.0800  -3.0800
    -2.9788  -2.9787  -2.9409  -2.9409  -2.9227  -2.9227  -2.9130  -2.9130
    -2.7870  -2.7870  -2.7586  -2.7586  -2.7266  -2.7266  -2.7041  -2.7041
    -2.3139  -2.3138  -2.2750  -2.2750  -2.2708  -2.2708  -2.2333  -2.2333
    -2.1639  -2.1639  -2.1360  -2.1360  -2.1128  -2.1128  -2.0683  -2.0683
    -2.0519  -2.0519  -1.9999  -1.9999  -1.9900  -1.9900  -1.9357  -1.9357
    -1.9285  -1.9285  -1.9187  -1.9187  -1.8282  -1.8282  -1.8243  -1.8243
    -0.7828  -0.7828  -0.7577  -0.7577  -0.7502  -0.7502  -0.6899  -0.6899
    -0.6735  -0.6735  -0.6340  -0.6340  -0.5306  -0.5306  -0.5293  -0.5293
    -0.5088  -0.5088  -0.4819  -0.4819  -0.4571  -0.4570  -0.4533  -0.4532
    -0.2240  -0.2239  -0.1926  -0.1926  -0.1921  -0.1921  -0.1600  -0.1600
     0.3361   0.3361   0.3445   0.3445   0.3882   0.3882   0.4047   0.4047
     1.0245   1.0246   1.0492   1.0492   1.1323   1.1323   1.1388   1.1388

          k = 0.0000-0.4084-0.2428 ( 58624 PWs)   bands (ev):

   -20.6290 -20.6289 -20.6289 -20.6289 -20.6283 -20.6283 -20.6282 -20.6282
   -19.4993 -19.4993 -19.4992 -19.4992 -19.4980 -19.4979 -19.4979 -19.4978
   -18.1920 -18.1919 -18.1919 -18.1919 -18.1788 -18.1788 -18.1788 -18.1787
   -15.5251 -15.5251 -15.5250 -15.5250 -15.5083 -15.5082 -15.5082 -15.5082
   -15.3994 -15.3993 -15.3993 -15.3992 -15.3788 -15.3787 -15.3787 -15.3786
   -13.9514 -13.9513 -13.9513 -13.9513 -13.9282 -13.9281 -13.9281 -13.9281
   -13.3189 -13.3189 -13.3189 -13.3188 -13.2725 -13.2725 -13.2725 -13.2724
   -13.0424 -13.0424 -13.0424 -13.0423 -13.0144 -13.0143 -13.0143 -13.0143
   -12.8462 -12.8462 -12.8461 -12.8461 -12.7942 -12.7941 -12.7941 -12.7941
   -12.4075 -12.4074 -12.4074 -12.4074 -12.3922 -12.3922 -12.3922 -12.3921
   -12.0209 -12.0209 -12.0208 -12.0208 -11.9737 -11.9736 -11.9736 -11.9736
   -11.0537 -11.0536 -11.0536 -11.0536 -11.0325 -11.0325 -11.0325 -11.0325
   -10.8676 -10.8676 -10.8676 -10.8675 -10.8363 -10.8363 -10.8363 -10.8362
   -10.0871 -10.0871 -10.0871 -10.0871 -10.0595 -10.0595 -10.0594 -10.0594
    -9.4346  -9.4346  -9.4346  -9.4346  -9.4190  -9.4190  -9.4190  -9.4190
    -9.1543  -9.1543  -9.1543  -9.1542  -9.0964  -9.0964  -9.0964  -9.0964
    -8.6436  -8.6435  -8.6435  -8.6435  -8.5704  -8.5704  -8.5704  -8.5704
    -8.3144  -8.3143  -8.3143  -8.3143  -8.1372  -8.1371  -8.1371  -8.1371
    -7.5955  -7.5954  -7.5954  -7.5954  -7.4769  -7.4769  -7.4768  -7.4768
    -7.1786  -7.1786  -7.1786  -7.1786  -7.1185  -7.1185  -7.1184  -7.1184
    -6.7848  -6.7848  -6.7848  -6.7848  -6.7567  -6.7566  -6.7566  -6.7566
    -6.6011  -6.6011  -6.6011  -6.6011  -6.5838  -6.5837  -6.5837  -6.5837
    -6.1211  -6.1211  -6.1211  -6.1210  -6.0751  -6.0751  -6.0750  -6.0750
    -6.0328  -6.0328  -6.0328  -6.0328  -6.0210  -6.0210  -6.0209  -6.0209
    -5.6988  -5.6988  -5.6988  -5.6987  -5.5632  -5.5631  -5.5631  -5.5631
    -5.4931  -5.4931  -5.4931  -5.4931  -5.4474  -5.4474  -5.4474  -5.4474
    -5.2181  -5.2181  -5.2180  -5.2180  -5.1649  -5.1649  -5.1649  -5.1649
    -5.1041  -5.1040  -5.1040  -5.1040  -5.0362  -5.0362  -5.0361  -5.0361
    -4.9004  -4.9004  -4.9003  -4.9003  -4.7821  -4.7821  -4.7821  -4.7821
    -4.6459  -4.6459  -4.6459  -4.6459  -4.6221  -4.6220  -4.6220  -4.6220
    -4.5733  -4.5733  -4.5733  -4.5733  -4.5332  -4.5332  -4.5331  -4.5331
    -4.4790  -4.4790  -4.4789  -4.4789  -4.3694  -4.3693  -4.3693  -4.3693
    -4.2859  -4.2859  -4.2859  -4.2858  -4.2451  -4.2451  -4.2451  -4.2451
    -4.1939  -4.1939  -4.1939  -4.1939  -4.0974  -4.0974  -4.0974  -4.0973
    -3.9691  -3.9691  -3.9691  -3.9691  -3.9599  -3.9599  -3.9599  -3.9598
    -3.8767  -3.8767  -3.8767  -3.8766  -3.8360  -3.8360  -3.8359  -3.8359
    -3.7978  -3.7977  -3.7977  -3.7977  -3.7622  -3.7622  -3.7622  -3.7622
    -3.5905  -3.5905  -3.5904  -3.5904  -3.5218  -3.5217  -3.5217  -3.5217
    -3.4096  -3.4095  -3.4095  -3.4095  -3.3638  -3.3637  -3.3637  -3.3637
    -3.3162  -3.3162  -3.3162  -3.3162  -3.2360  -3.2360  -3.2359  -3.2359
    -3.1879  -3.1879  -3.1879  -3.1879  -3.1673  -3.1673  -3.1673  -3.1673
    -3.1309  -3.1309  -3.1309  -3.1309  -3.0934  -3.0934  -3.0934  -3.0934
    -2.9624  -2.9624  -2.9623  -2.9623  -2.9158  -2.9158  -2.9158  -2.9158
    -2.7736  -2.7736  -2.7736  -2.7735  -2.7139  -2.7139  -2.7139  -2.7139
    -2.2971  -2.2971  -2.2971  -2.2971  -2.2506  -2.2506  -2.2506  -2.2505
    -2.1544  -2.1544  -2.1544  -2.1544  -2.0870  -2.0869  -2.0869  -2.0869
    -2.0340  -2.0340  -2.0340  -2.0340  -1.9532  -1.9532  -1.9531  -1.9531
    -1.9222  -1.9222  -1.9222  -1.9222  -1.8270  -1.8270  -1.8270  -1.8269
    -0.7758  -0.7757  -0.7757  -0.7757  -0.7187  -0.7187  -0.7187  -0.7187
    -0.6515  -0.6514  -0.6514  -0.6514  -0.5299  -0.5298  -0.5298  -0.5298
    -0.4933  -0.4933  -0.4932  -0.4932  -0.4557  -0.4557  -0.4556  -0.4556
    -0.2148  -0.2148  -0.2147  -0.2147  -0.1695  -0.1695  -0.1694  -0.1694
     0.3379   0.3379   0.3379   0.3380   0.3991   0.3991   0.3991   0.3992
     1.0362   1.0363   1.0363   1.0363   1.1357   1.1357   1.1358   1.1358

          k = 0.2500 0.0000 0.0000 ( 58691 PWs)   bands (ev):

   -20.6298 -20.6296 -20.6294 -20.6292 -20.6280 -20.6278 -20.6276 -20.6274
   -19.5001 -19.5000 -19.4993 -19.4991 -19.4980 -19.4979 -19.4972 -19.4971
   -18.1926 -18.1925 -18.1914 -18.1913 -18.1793 -18.1792 -18.1783 -18.1782
   -15.5259 -15.5227 -15.5222 -15.5199 -15.5148 -15.5109 -15.5098 -15.5081
   -15.4047 -15.4000 -15.3888 -15.3880 -15.3861 -15.3840 -15.3814 -15.3782
   -13.9479 -13.9478 -13.9448 -13.9430 -13.9416 -13.9377 -13.9296 -13.9241
   -13.3205 -13.3166 -13.3103 -13.3009 -13.2996 -13.2791 -13.2715 -13.2683
   -13.0769 -13.0581 -13.0492 -13.0392 -13.0131 -13.0030 -12.9957 -12.9898
   -12.8491 -12.8476 -12.8369 -12.8363 -12.8085 -12.8078 -12.7879 -12.7869
   -12.4306 -12.4181 -12.4028 -12.4009 -12.3985 -12.3934 -12.3803 -12.3718
   -12.0213 -12.0196 -12.0195 -12.0177 -11.9846 -11.9829 -11.9663 -11.9652
   -11.0711 -11.0582 -11.0571 -11.0523 -11.0486 -11.0423 -11.0179 -11.0002
   -10.8834 -10.8683 -10.8602 -10.8555 -10.8541 -10.8408 -10.8381 -10.8132
   -10.1027 -10.0979 -10.0950 -10.0690 -10.0679 -10.0627 -10.0605 -10.0383
    -9.4946  -9.4921  -9.4806  -9.4763  -9.3806  -9.3800  -9.3704  -9.3599
    -9.1759  -9.1746  -9.1283  -9.1274  -9.1089  -9.1074  -9.0825  -9.0816
    -8.6818  -8.6675  -8.6622  -8.6093  -8.5790  -8.5573  -8.5276  -8.5151
    -8.3433  -8.3189  -8.2646  -8.2548  -8.1663  -8.1587  -8.1530  -8.1516
    -7.5991  -7.5873  -7.5772  -7.5582  -7.5052  -7.4953  -7.4891  -7.4788
    -7.2061  -7.1936  -7.1756  -7.1665  -7.1463  -7.1441  -7.0940  -7.0854
    -6.8120  -6.7948  -6.7940  -6.7829  -6.7700  -6.7433  -6.7411  -6.7328
    -6.6114  -6.6023  -6.6020  -6.5949  -6.5914  -6.5900  -6.5702  -6.5677
    -6.1745  -6.1530  -6.1364  -6.1123  -6.0929  -6.0921  -6.0854  -6.0833
    -6.0774  -6.0724  -6.0705  -6.0428  -5.9845  -5.9839  -5.9775  -5.9690
    -5.7015  -5.6927  -5.6904  -5.6885  -5.5966  -5.5767  -5.5710  -5.5630
    -5.5597  -5.5535  -5.5513  -5.5488  -5.4296  -5.4065  -5.3956  -5.3858
    -5.2603  -5.2454  -5.2440  -5.2323  -5.1523  -5.1501  -5.1240  -5.1195
    -5.0996  -5.0929  -5.0463  -5.0414  -5.0302  -5.0162  -5.0015  -4.9825
    -4.9423  -4.9171  -4.9166  -4.8508  -4.8300  -4.8156  -4.8093  -4.7366
    -4.6652  -4.6639  -4.6515  -4.6313  -4.6065  -4.6053  -4.6028  -4.5923
    -4.5811  -4.5719  -4.5713  -4.5534  -4.5500  -4.5351  -4.5190  -4.5160
    -4.4884  -4.4645  -4.4401  -4.4135  -4.3946  -4.3862  -4.3857  -4.3094
    -4.2912  -4.2808  -4.2703  -4.2688  -4.2459  -4.2438  -4.2396  -4.2389
    -4.2358  -4.1779  -4.1651  -4.1606  -4.1380  -4.1337  -4.1010  -4.0905
    -3.9889  -3.9734  -3.9686  -3.9598  -3.9564  -3.9551  -3.9474  -3.9458
    -3.9197  -3.9189  -3.8860  -3.8642  -3.8632  -3.8551  -3.8493  -3.8297
    -3.8291  -3.8210  -3.7950  -3.7742  -3.7671  -3.7577  -3.7451  -3.7207
    -3.6463  -3.6154  -3.5873  -3.5710  -3.5399  -3.5207  -3.5055  -3.4895
    -3.4303  -3.4280  -3.4248  -3.4179  -3.3595  -3.3570  -3.3280  -3.3205
    -3.3027  -3.2987  -3.2876  -3.2749  -3.2747  -3.2618  -3.2497  -3.2469
    -3.2144  -3.2087  -3.2016  -3.1819  -3.1807  -3.1666  -3.1502  -3.1466
    -3.1424  -3.1395  -3.1019  -3.1009  -3.0949  -3.0918  -3.0684  -3.0573
    -3.0382  -3.0340  -2.9699  -2.9630  -2.9040  -2.8878  -2.8731  -2.8725
    -2.8001  -2.7954  -2.7482  -2.7440  -2.7117  -2.6946  -2.6870  -2.6788
    -2.5332  -2.5279  -2.4836  -2.4824  -2.2148  -2.1898  -2.1884  -2.1612
    -2.1560  -2.1325  -2.0770  -2.0671  -2.0512  -2.0459  -2.0434  -2.0318
    -2.0310  -2.0202  -1.9971  -1.9884  -1.9859  -1.9797  -1.9710  -1.9517
    -1.9390  -1.9381  -1.9380  -1.9046  -1.8500  -1.8485  -1.8090  -1.8042
    -0.7721  -0.7581  -0.7577  -0.7572  -0.7504  -0.7193  -0.7080  -0.6800
    -0.6461  -0.6432  -0.6298  -0.6186  -0.5950  -0.5917  -0.5642  -0.5565
    -0.5035  -0.4958  -0.4830  -0.4787  -0.4658  -0.4551  -0.4550  -0.4527
    -0.2402  -0.2209  -0.2197  -0.1976  -0.1834  -0.1645  -0.1616  -0.1397
     0.3375   0.3436   0.3553   0.3635   0.3775   0.3808   0.3912   0.4081
     1.0265   1.0387   1.0630   1.0634   1.0820   1.1151   1.1616   1.1830

          k = 0.2500 0.0000-0.2428 ( 58612 PWs)   bands (ev):

   -20.6298 -20.6297 -20.6293 -20.6292 -20.6279 -20.6279 -20.6275 -20.6274
   -19.5001 -19.5000 -19.4992 -19.4992 -19.4980 -19.4979 -19.4972 -19.4971
   -18.1926 -18.1925 -18.1914 -18.1914 -18.1793 -18.1792 -18.1783 -18.1783
   -15.5234 -15.5233 -15.5226 -15.5225 -15.5114 -15.5114 -15.5100 -15.5100
   -15.4024 -15.4023 -15.3876 -15.3876 -15.3859 -15.3858 -15.3798 -15.3797
   -13.9485 -13.9484 -13.9441 -13.9441 -13.9356 -13.9355 -13.9304 -13.9303
   -13.3183 -13.3183 -13.3087 -13.3087 -13.2828 -13.2828 -13.2734 -13.2734
   -13.0678 -13.0678 -13.0441 -13.0441 -13.0085 -13.0084 -12.9927 -12.9927
   -12.8483 -12.8483 -12.8366 -12.8365 -12.8082 -12.8081 -12.7874 -12.7873
   -12.4166 -12.4165 -12.4081 -12.4080 -12.3909 -12.3908 -12.3825 -12.3825
   -12.0205 -12.0204 -12.0186 -12.0186 -11.9837 -11.9837 -11.9658 -11.9657
   -11.0678 -11.0678 -11.0493 -11.0492 -11.0385 -11.0385 -11.0196 -11.0196
   -10.8764 -10.8764 -10.8549 -10.8549 -10.8473 -10.8472 -10.8272 -10.8272
   -10.1008 -10.1008 -10.0808 -10.0808 -10.0664 -10.0664 -10.0486 -10.0486
    -9.4889  -9.4889  -9.4833  -9.4833  -9.3813  -9.3813  -9.3642  -9.3642
    -9.1752  -9.1752  -9.1279  -9.1278  -9.1082  -9.1081  -9.0821  -9.0820
    -8.6759  -8.6759  -8.6337  -8.6337  -8.5704  -8.5704  -8.5207  -8.5207
    -8.3307  -8.3306  -8.2590  -8.2590  -8.1596  -8.1595  -8.1552  -8.1552
    -7.5934  -7.5933  -7.5684  -7.5684  -7.5010  -7.5009  -7.4825  -7.4824
    -7.2002  -7.2002  -7.1707  -7.1706  -7.1450  -7.1450  -7.0899  -7.0898
    -6.8032  -6.8032  -6.7890  -6.7890  -6.7574  -6.7573  -6.7366  -6.7365
    -6.6075  -6.6075  -6.5975  -6.5975  -6.5898  -6.5898  -6.5697  -6.5696
    -6.1676  -6.1676  -6.1220  -6.1219  -6.0903  -6.0903  -6.0855  -6.0854
    -6.0714  -6.0713  -6.0578  -6.0577  -5.9828  -5.9828  -5.9772  -5.9772
    -5.6975  -5.6974  -5.6894  -5.6894  -5.5860  -5.5859  -5.5658  -5.5658
    -5.5594  -5.5594  -5.5474  -5.5474  -5.4194  -5.4194  -5.3905  -5.3905
    -5.2581  -5.2581  -5.2309  -5.2309  -5.1513  -5.1512  -5.1222  -5.1222
    -5.0966  -5.0966  -5.0496  -5.0496  -5.0221  -5.0221  -4.9862  -4.9862
    -4.9211  -4.9211  -4.9065  -4.9065  -4.8280  -4.8279  -4.7567  -4.7567
    -4.6519  -4.6519  -4.6415  -4.6415  -4.6255  -4.6255  -4.5923  -4.5923
    -4.5820  -4.5820  -4.5496  -4.5495  -4.5384  -4.5383  -4.5223  -4.5223
    -4.4851  -4.4850  -4.4379  -4.4378  -4.3783  -4.3783  -4.3439  -4.3439
    -4.2899  -4.2898  -4.2647  -4.2647  -4.2479  -4.2479  -4.2415  -4.2414
    -4.1983  -4.1982  -4.1769  -4.1768  -4.1184  -4.1184  -4.1027  -4.1026
    -3.9785  -3.9785  -3.9656  -3.9656  -3.9559  -3.9559  -3.9476  -3.9476
    -3.9192  -3.9192  -3.8775  -3.8774  -3.8536  -3.8536  -3.8458  -3.8458
    -3.8154  -3.8154  -3.7927  -3.7927  -3.7651  -3.7651  -3.7329  -3.7329
    -3.6202  -3.6202  -3.5849  -3.5848  -3.5331  -3.5330  -3.5051  -3.5051
    -3.4315  -3.4314  -3.4176  -3.4176  -3.3495  -3.3495  -3.3205  -3.3205
    -3.2967  -3.2967  -3.2884  -3.2884  -3.2631  -3.2630  -3.2584  -3.2584
    -3.2043  -3.2043  -3.1827  -3.1827  -3.1742  -3.1741  -3.1593  -3.1592
    -3.1457  -3.1457  -3.0995  -3.0995  -3.0824  -3.0824  -3.0725  -3.0725
    -3.0364  -3.0363  -2.9653  -2.9652  -2.8965  -2.8965  -2.8730  -2.8729
    -2.7973  -2.7973  -2.7470  -2.7470  -2.7030  -2.7030  -2.6826  -2.6826
    -2.5309  -2.5309  -2.4828  -2.4828  -2.2042  -2.2042  -2.1816  -2.1816
    -2.1190  -2.1190  -2.0960  -2.0960  -2.0451  -2.0450  -2.0346  -2.0346
    -2.0151  -2.0151  -2.0018  -2.0018  -1.9823  -1.9823  -1.9726  -1.9725
    -1.9380  -1.9380  -1.9107  -1.9106  -1.8491  -1.8491  -1.8071  -1.8071
    -0.7697  -0.7697  -0.7557  -0.7557  -0.7289  -0.7288  -0.6999  -0.6999
    -0.6435  -0.6435  -0.6232  -0.6232  -0.5935  -0.5935  -0.5606  -0.5605
    -0.5014  -0.5014  -0.4736  -0.4735  -0.4657  -0.4656  -0.4532  -0.4532
    -0.2338  -0.2338  -0.2066  -0.2066  -0.1760  -0.1759  -0.1473  -0.1472
     0.3457   0.3457   0.3478   0.3478   0.3849   0.3849   0.4006   0.4007
     1.0385   1.0386   1.0560   1.0560   1.0983   1.0983   1.1731   1.1732

          k = 0.2500 0.2042 0.0000 ( 58638 PWs)   bands (ev):

   -20.6296 -20.6294 -20.6291 -20.6289 -20.6282 -20.6281 -20.6278 -20.6276
   -19.4998 -19.4997 -19.4992 -19.4990 -19.4981 -19.4980 -19.4975 -19.4973
   -18.1924 -18.1923 -18.1916 -18.1915 -18.1791 -18.1791 -18.1785 -18.1784
   -15.5255 -15.5234 -15.5214 -15.5200 -15.5142 -15.5115 -15.5094 -15.5083
   -15.4032 -15.3991 -15.3928 -15.3916 -15.3838 -15.3818 -15.3812 -15.3783
   -13.9496 -13.9484 -13.9481 -13.9451 -13.9380 -13.9362 -13.9275 -13.9240
   -13.3202 -13.3141 -13.3122 -13.3026 -13.2961 -13.2783 -13.2758 -13.2695
   -13.0674 -13.0494 -13.0412 -13.0316 -13.0224 -13.0102 -13.0040 -12.9960
   -12.8482 -12.8472 -12.8398 -12.8393 -12.8043 -12.8038 -12.7898 -12.7892
   -12.4263 -12.4162 -12.4060 -12.4039 -12.3961 -12.3911 -12.3821 -12.3761
   -12.0215 -12.0202 -12.0196 -12.0182 -11.9818 -11.9800 -11.9689 -11.9677
   -11.0679 -11.0583 -11.0571 -11.0500 -11.0453 -11.0381 -11.0232 -11.0060
   -10.8789 -10.8662 -10.8636 -10.8587 -10.8464 -10.8432 -10.8411 -10.8162
   -10.0980 -10.0925 -10.0889 -10.0739 -10.0678 -10.0646 -10.0625 -10.0419
    -9.4751  -9.4742  -9.4652  -9.4584  -9.3953  -9.3943  -9.3862  -9.3756
    -9.1689  -9.1672  -9.1227  -9.1217  -9.1205  -9.1199  -9.0896  -9.0890
    -8.6733  -8.6634  -8.6418  -8.6078  -8.5959  -8.5635  -8.5393  -8.5380
    -8.3367  -8.3252  -8.2782  -8.2781  -8.1550  -8.1533  -8.1439  -8.1356
    -7.6033  -7.5918  -7.5877  -7.5716  -7.4976  -7.4857  -7.4854  -7.4700
    -7.1962  -7.1860  -7.1621  -7.1536  -7.1527  -7.1491  -7.1043  -7.0956
    -6.8035  -6.7926  -6.7920  -6.7756  -6.7701  -6.7564  -6.7427  -6.7352
    -6.6094  -6.6007  -6.5997  -6.5941  -6.5907  -6.5904  -6.5751  -6.5722
    -6.1485  -6.1390  -6.1152  -6.1135  -6.0971  -6.0953  -6.0883  -6.0711
    -6.0672  -6.0596  -6.0539  -6.0404  -6.0038  -5.9983  -5.9878  -5.9794
    -5.7020  -5.6939  -5.6929  -5.6892  -5.5836  -5.5736  -5.5621  -5.5615
    -5.5460  -5.5334  -5.5329  -5.5188  -5.4342  -5.4321  -5.4055  -5.4055
    -5.2438  -5.2322  -5.2230  -5.2185  -5.1719  -5.1559  -5.1450  -5.1417
    -5.1059  -5.0825  -5.0764  -5.0544  -5.0410  -5.0318  -5.0147  -5.0146
    -4.9460  -4.9132  -4.8919  -4.8357  -4.8293  -4.8239  -4.8032  -4.7456
    -4.6660  -4.6519  -4.6478  -4.6224  -4.6117  -4.6105  -4.6081  -4.5966
    -4.5924  -4.5919  -4.5772  -4.5624  -4.5504  -4.5346  -4.5293  -4.5207
    -4.4906  -4.4635  -4.4411  -4.4092  -4.4083  -4.3892  -4.3797  -4.3443
    -4.3040  -4.2936  -4.2810  -4.2655  -4.2513  -4.2485  -4.2372  -4.2352
    -4.2131  -4.1992  -4.1608  -4.1548  -4.1374  -4.1238  -4.0980  -4.0874
    -3.9807  -3.9659  -3.9643  -3.9584  -3.9580  -3.9562  -3.9473  -3.9391
    -3.9165  -3.9103  -3.8641  -3.8616  -3.8555  -3.8538  -3.8360  -3.8270
    -3.8217  -3.8094  -3.7841  -3.7783  -3.7683  -3.7588  -3.7421  -3.7380
    -3.6267  -3.5992  -3.5698  -3.5666  -3.5586  -3.5461  -3.5086  -3.5028
    -3.4396  -3.4337  -3.3957  -3.3906  -3.3809  -3.3687  -3.3539  -3.3344
    -3.3248  -3.3076  -3.2978  -3.2830  -3.2666  -3.2638  -3.2434  -3.2368
    -3.2021  -3.1913  -3.1902  -3.1833  -3.1822  -3.1765  -3.1508  -3.1494
    -3.1358  -3.1295  -3.1195  -3.1194  -3.1003  -3.0941  -3.0776  -3.0744
    -3.0103  -2.9922  -2.9584  -2.9463  -2.9234  -2.9017  -2.8873  -2.8861
    -2.7954  -2.7808  -2.7446  -2.7443  -2.7359  -2.7229  -2.7063  -2.6985
    -2.4385  -2.4352  -2.4018  -2.3989  -2.2307  -2.2030  -2.1794  -2.1684
    -2.1514  -2.1304  -2.0963  -2.0814  -2.0794  -2.0660  -2.0658  -2.0516
    -2.0504  -2.0353  -2.0161  -2.0136  -1.9916  -1.9802  -1.9556  -1.9458
    -1.9432  -1.9374  -1.9320  -1.9135  -1.8450  -1.8443  -1.8136  -1.8080
    -0.7737  -0.7649  -0.7550  -0.7548  -0.7518  -0.7300  -0.7104  -0.6927
    -0.6530  -0.6462  -0.6387  -0.6311  -0.5742  -0.5714  -0.5631  -0.5510
    -0.4934  -0.4872  -0.4854  -0.4689  -0.4667  -0.4541  -0.4526  -0.4503
    -0.2340  -0.2171  -0.2128  -0.1935  -0.1887  -0.1720  -0.1669  -0.1476
     0.3396   0.3456   0.3518   0.3599   0.3788   0.3846   0.3887   0.4036
     1.0260   1.0409   1.0496   1.0622   1.1022   1.1170   1.1514   1.1690

          k = 0.2500 0.2042-0.2428 ( 58624 PWs)   bands (ev):

   -20.6295 -20.6294 -20.6290 -20.6290 -20.6282 -20.6281 -20.6277 -20.6277
   -19.4998 -19.4998 -19.4991 -19.4990 -19.4981 -19.4980 -19.4974 -19.4973
   -18.1924 -18.1923 -18.1916 -18.1915 -18.1791 -18.1791 -18.1785 -18.1784
   -15.5231 -15.5231 -15.5225 -15.5225 -15.5112 -15.5111 -15.5102 -15.5101
   -15.4011 -15.4010 -15.3920 -15.3919 -15.3830 -15.3830 -15.3799 -15.3798
   -13.9492 -13.9491 -13.9467 -13.9467 -13.9329 -13.9329 -13.9299 -13.9298
   -13.3165 -13.3165 -13.3096 -13.3096 -13.2824 -13.2823 -13.2757 -13.2756
   -13.0588 -13.0587 -13.0363 -13.0363 -13.0169 -13.0168 -12.9998 -12.9998
   -12.8477 -12.8476 -12.8395 -12.8395 -12.8041 -12.8040 -12.7895 -12.7894
   -12.4133 -12.4133 -12.4070 -12.4069 -12.3922 -12.3922 -12.3862 -12.3862
   -12.0206 -12.0206 -12.0192 -12.0192 -11.9809 -11.9808 -11.9683 -11.9683
   -11.0624 -11.0624 -11.0467 -11.0467 -11.0407 -11.0406 -11.0248 -11.0247
   -10.8726 -10.8726 -10.8552 -10.8551 -10.8474 -10.8474 -10.8306 -10.8306
   -10.0955 -10.0954 -10.0757 -10.0757 -10.0708 -10.0708 -10.0527 -10.0527
    -9.4717  -9.4716  -9.4651  -9.4651  -9.3958  -9.3958  -9.3800  -9.3799
    -9.1681  -9.1680  -9.1224  -9.1224  -9.1201  -9.1200  -9.0893  -9.0892
    -8.6640  -8.6639  -8.6296  -8.6295  -8.5807  -8.5806  -8.5384  -8.5384
    -8.3295  -8.3294  -8.2787  -8.2786  -8.1498  -8.1498  -8.1440  -8.1439
    -7.5978  -7.5977  -7.5804  -7.5804  -7.4915  -7.4914  -7.4770  -7.4770
    -7.1912  -7.1912  -7.1579  -7.1579  -7.1506  -7.1506  -7.1002  -7.1001
    -6.7970  -6.7970  -6.7852  -6.7852  -6.7610  -6.7610  -6.7416  -6.7416
    -6.6047  -6.6047  -6.5964  -6.5964  -6.5902  -6.5901  -6.5742  -6.5742
    -6.1455  -6.1454  -6.1153  -6.1153  -6.0953  -6.0953  -6.0767  -6.0766
    -6.0592  -6.0592  -6.0516  -6.0515  -5.9977  -5.9977  -5.9887  -5.9887
    -5.6976  -5.6975  -5.6917  -5.6916  -5.5738  -5.5737  -5.5655  -5.5655
    -5.5433  -5.5433  -5.5219  -5.5218  -5.4331  -5.4331  -5.4056  -5.4056
    -5.2460  -5.2460  -5.2114  -5.2113  -5.1613  -5.1612  -5.1463  -5.1463
    -5.0922  -5.0921  -5.0733  -5.0732  -5.0389  -5.0388  -5.0113  -5.0113
    -4.9129  -4.9129  -4.8943  -4.8943  -4.8177  -4.8177  -4.7716  -4.7715
    -4.6516  -4.6516  -4.6393  -4.6392  -4.6134  -4.6134  -4.5971  -4.5971
    -4.5838  -4.5838  -4.5594  -4.5593  -4.5509  -4.5509  -4.5377  -4.5377
    -4.4791  -4.4791  -4.4321  -4.4321  -4.3917  -4.3916  -4.3607  -4.3606
    -4.2994  -4.2993  -4.2718  -4.2718  -4.2535  -4.2535  -4.2363  -4.2362
    -4.1898  -4.1898  -4.1747  -4.1746  -4.1169  -4.1169  -4.1018  -4.1018
    -3.9721  -3.9720  -3.9619  -3.9619  -3.9544  -3.9544  -3.9440  -3.9440
    -3.9120  -3.9120  -3.8676  -3.8676  -3.8470  -3.8470  -3.8355  -3.8355
    -3.8104  -3.8104  -3.7894  -3.7894  -3.7684  -3.7684  -3.7370  -3.7370
    -3.6063  -3.6062  -3.5727  -3.5726  -3.5556  -3.5555  -3.5092  -3.5092
    -3.4348  -3.4347  -3.3966  -3.3966  -3.3709  -3.3708  -3.3388  -3.3388
    -3.3160  -3.3159  -3.2898  -3.2898  -3.2617  -3.2617  -3.2411  -3.2410
    -3.1966  -3.1966  -3.1830  -3.1830  -3.1761  -3.1761  -3.1639  -3.1638
    -3.1372  -3.1371  -3.1061  -3.1061  -3.0953  -3.0953  -3.0855  -3.0855
    -3.0009  -3.0008  -2.9515  -2.9514  -2.9129  -2.9129  -2.8870  -2.8870
    -2.7878  -2.7877  -2.7407  -2.7406  -2.7334  -2.7334  -2.7022  -2.7022
    -2.4360  -2.4360  -2.4015  -2.4014  -2.2143  -2.2143  -2.1782  -2.1782
    -2.1373  -2.1373  -2.0942  -2.0942  -2.0704  -2.0703  -2.0576  -2.0575
    -2.0376  -2.0376  -2.0266  -2.0266  -1.9740  -1.9740  -1.9630  -1.9630
    -1.9343  -1.9343  -1.9204  -1.9204  -1.8451  -1.8450  -1.8112  -1.8112
    -0.7696  -0.7696  -0.7598  -0.7597  -0.7288  -0.7288  -0.7105  -0.7105
    -0.6458  -0.6457  -0.6383  -0.6382  -0.5728  -0.5727  -0.5565  -0.5565
    -0.4917  -0.4916  -0.4744  -0.4743  -0.4617  -0.4616  -0.4509  -0.4508
    -0.2274  -0.2273  -0.2043  -0.2042  -0.1794  -0.1794  -0.1552  -0.1552
     0.3458   0.3459   0.3477   0.3477   0.3859   0.3859   0.3971   0.3972
     1.0368   1.0369   1.0539   1.0539   1.1071   1.1072   1.1606   1.1606

          k = 0.2500-0.4084 0.0000 ( 58636 PWs)   bands (ev):

   -20.6290 -20.6289 -20.6287 -20.6287 -20.6285 -20.6285 -20.6282 -20.6282
   -19.4994 -19.4993 -19.4992 -19.4992 -19.4980 -19.4979 -19.4978 -19.4978
   -18.1920 -18.1920 -18.1919 -18.1919 -18.1788 -18.1788 -18.1787 -18.1787
   -15.5245 -15.5245 -15.5205 -15.5205 -15.5128 -15.5128 -15.5088 -15.5087
   -15.3988 -15.3988 -15.3961 -15.3961 -15.3819 -15.3819 -15.3795 -15.3794
   -13.9507 -13.9507 -13.9477 -13.9477 -13.9355 -13.9355 -13.9248 -13.9248
   -13.3175 -13.3175 -13.3074 -13.3074 -13.2870 -13.2870 -13.2734 -13.2734
   -13.0449 -13.0448 -13.0291 -13.0291 -13.0226 -13.0226 -13.0134 -13.0133
   -12.8447 -12.8447 -12.8445 -12.8445 -12.7960 -12.7960 -12.7958 -12.7958
   -12.4155 -12.4154 -12.4114 -12.4114 -12.3865 -12.3864 -12.3863 -12.3863
   -12.0212 -12.0212 -12.0192 -12.0192 -11.9753 -11.9753 -11.9736 -11.9736
   -11.0631 -11.0631 -11.0509 -11.0508 -11.0372 -11.0372 -11.0211 -11.0210
   -10.8694 -10.8694 -10.8566 -10.8566 -10.8556 -10.8556 -10.8259 -10.8258
   -10.0863 -10.0863 -10.0798 -10.0798 -10.0755 -10.0755 -10.0515 -10.0515
    -9.4331  -9.4331  -9.4309  -9.4309  -9.4271  -9.4271  -9.4158  -9.4158
    -9.1477  -9.1477  -9.1465  -9.1465  -9.1064  -9.1064  -9.1058  -9.1057
    -8.6575  -8.6575  -8.6215  -8.6215  -8.5747  -8.5746  -8.5696  -8.5696
    -8.3143  -8.3142  -8.3111  -8.3110  -8.1448  -8.1448  -8.1304  -8.1304
    -7.6021  -7.6021  -7.5894  -7.5894  -7.4869  -7.4869  -7.4695  -7.4695
    -7.1730  -7.1730  -7.1670  -7.1670  -7.1315  -7.1315  -7.1226  -7.1226
    -6.7913  -6.7913  -6.7831  -6.7831  -6.7627  -6.7627  -6.7453  -6.7453
    -6.6040  -6.6040  -6.5951  -6.5951  -6.5851  -6.5851  -6.5831  -6.5831
[...]
     atom  301 type  2   force =    -0.00030600   -0.00048916    0.00013451
     atom  302 type  2   force =     0.00030600    0.00048916    0.00013451
     atom  303 type  2   force =    -0.00030600    0.00048916    0.00013451
     atom  304 type  2   force =     0.00030600   -0.00048916    0.00013451
     atom  305 type  2   force =     0.00030600    0.00048916   -0.00013451
     atom  306 type  2   force =    -0.00030600   -0.00048916   -0.00013451
     atom  307 type  2   force =     0.00045792   -0.00037001    0.00015436
     atom  308 type  2   force =     0.00045792    0.00037001   -0.00015436
     atom  309 type  2   force =    -0.00045792   -0.00037001   -0.00015436
     atom  310 type  2   force =     0.00045792   -0.00037001   -0.00015436
     atom  311 type  2   force =    -0.00045792    0.00037001   -0.00015436
     atom  312 type  2   force =    -0.00045792   -0.00037001    0.00015436
     atom  313 type  2   force =     0.00045792    0.00037001    0.00015436
     atom  314 type  2   force =    -0.00035189   -0.00031344   -0.00008643
     atom  315 type  2   force =    -0.00035189    0.00031344    0.00008643
     atom  316 type  2   force =     0.00035189   -0.00031344    0.00008643
     atom  317 type  2   force =    -0.00035189   -0.00031344    0.00008643
     atom  318 type  2   force =     0.00035189    0.00031344    0.00008643
     atom  319 type  2   force =     0.00035189   -0.00031344   -0.00008643
     atom  320 type  2   force =    -0.00035189    0.00031344   -0.00008643

     Total force =     0.008439     Total SCF correction =     0.000350

     BFGS Geometry Optimization

     bfgs converged in   1 scf cycles and   0 bfgs steps
     (criteria: energy <  1.0E-04 Ry, force <  1.0E-03 Ry/Bohr)

     End of BFGS Geometry Optimization

     Final energy   =   -2489.5337360957 Ry
Begin final coordinates

ATOMIC_POSITIONS (angstrom)
O        1.699560739   2.112081958   3.625623370
O        0.715060588   0.388405600   2.136688790
C        1.467448611  12.627638088   2.622714713
C        0.976718179   9.739007145   0.178918755
C        2.245912500  12.931642993   3.839616063
C        1.585680603  11.338354870   1.999082349
C        2.338798365   1.120412635   4.286060267
C        1.961141746   7.531298541  21.968593254
N        1.278139992   6.183477743  20.075180971
C        1.170761722   7.325615315  20.799650299
C        0.878808402  10.979678158   0.882539506
C        2.912580582  11.941450859   4.588630323
C        1.861141476   8.695618013   0.551622816
C        3.752856127   0.421358513   6.122356454
C        3.117415706   1.429049606   5.412006551
C        3.649562919  12.232780500   5.728790392
C        0.184268307   9.519791645  21.167189693
C        0.269102597   8.361145006  20.423001066
C        0.460907811   5.985676807  18.887964053
C        2.211841161   5.141870586  20.484814685
C        4.327221632  11.136747087   6.505794856
H        3.902137280  11.039112415   7.517749569
H        5.397803089  11.347560845   6.636276042
H        4.229940231  10.173672201   5.987279722
H        2.857368414  10.901162257   4.272261287
H       10.238881971  10.301553289  20.863071085
H        0.182215234  11.715733369   0.466766146
H        2.657519740   6.764156937   0.157913393
H        3.203047041   2.471437544   5.719167342
H        4.342342289   0.675413913   7.006038108
H        2.487572597   8.806602748   1.436169477
H        2.289599921  10.631435104   2.433748960
H       10.139758581   6.064421800  19.124218407
H       10.390136155   8.246279692  19.542546477
H        2.180452909   4.325297021  19.756879435
H        1.948638810   4.739621029  21.474999008
H        0.653369531   4.989643334  18.479998858
H        3.242108432   5.528470494  20.531695801
H        1.138895207   1.590738679   2.916419903
H        0.696524765   6.728073878  18.109411998
O        3.675449261  11.047918042  14.696123370
O        9.050439261   8.692081958   7.444876630
O        7.074560739   4.467918042  18.515376630
O        9.050449261  11.047918042  18.515376630
O        7.074560739   2.112081958   7.444876630
O        1.699560739   4.467918042  14.696123370
O        3.675449261   8.692081958   3.625623370
O        4.659939412  12.771594400  13.207188790
O       10.034939412   6.968405600   8.933811210
O        6.090060588   6.191594400  20.004311210
O       10.034939412  12.771594400  20.004311210
O        6.090060588   0.388405600   8.933811210
O        0.715060588   6.191594400  13.207188790
O        4.659939412   6.968405600   2.136688790
C        3.907551389   0.532361912  13.693214713
C        9.282551389   6.047638088   8.447785287
C        6.842448611   7.112361912  19.518285287
C        9.282551389   0.532361912  19.518285287
C        6.842448611  12.627638088   8.447785287
C        1.467448611   7.112361912  13.693214713
C        3.907551389   6.047638088   2.622714713
C        4.398281821   3.420992855  11.249418755
C        9.773281821   3.159007145  10.891581245
C        6.351718179  10.000992855  21.962081245
C        9.773281821   3.420992855  21.962081245
C        6.351718179   9.739007145  10.891581245
C        0.976718179  10.000992855  11.249418755
C        4.398281821   3.159007145   0.178918755
C        3.129087500   0.228357007  14.910116063
C        8.504087500   6.351642993   7.230883937
C        7.620912500   6.808357007  18.301383937
C        8.504087500   0.228357007  18.301383937
C        7.620912500  12.931642993   7.230883937
C        2.245912500   6.808357007  14.910116063
C        3.129087500   6.351642993   3.839616063
C        3.789319397   1.821645130  13.069582349
C        9.164319397   4.758354870   9.071417651
C        6.960680603   8.401645130  20.141917651
C        9.164319397   1.821645130  20.141917651
C        6.960680603  11.338354870   9.071417651
C        1.585680603   8.401645130  13.069582349
C        3.789319397   4.758354870   1.999082349
C        3.036201635  12.039587365  15.356560267
C        8.411201635   7.700412635   6.784439733
C        7.713798365   5.459587365  17.854939733
C        8.411201635  12.039587365  17.854939733
C        7.713798365   1.120412635   6.784439733
C        2.338798365   5.459587365  15.356560267
C        3.036201635   7.700412635   4.286060267
C        3.413868254   5.628701459  10.898093254
C        8.788858254   0.951298541  11.242906746
C        7.336141746  12.208701459   0.172406746
C        8.788858254   5.628701459   0.172406746
C        7.336141746   7.531298541  11.242906746
C        1.961141746  12.208701459  10.898093254
C        3.413868254   0.951298541  21.968593254
N        4.096860008   6.976522257   9.004680971
N        9.471860008  12.763477743  13.136319029
N        6.653139992   0.396522257   2.065819029
N        9.471860008   6.976522257   2.065819029
N        6.653139992   6.183477743  13.136319029
N        1.278139992   0.396522257   9.004680971
N        4.096860008  12.763477743  20.075180971
C        4.204238278   5.834384685   9.729150299
C        9.579238278   0.745615315  12.411849701
C        6.545761722  12.414384685   1.341349701
C        9.579238278   5.834384685   1.341349701
C        6.545761722   7.325615315  12.411849701
C        1.170761722  12.414384685   9.729150299
C        4.204238278   0.745615315  20.799650299
C        4.496201598   2.180321842  11.953039506
C        9.871191598   4.399678158  10.187960494
C        6.253808402   8.760321842  21.258460494
C        9.871201598   2.180321842  21.258460494
C        6.253808402  10.979678158  10.187960494
C        0.878808402   8.760321842  11.953039506
C        4.496191598   4.399678158   0.882539506
C        2.462429418   1.218549141  15.659130323
C        7.837419418   5.361450859   6.481869677
C        8.287580582   7.798549141  17.552369677
C        7.837419418   1.218549141  17.552369677
C        8.287580582  11.941450859   6.481869677
C        2.912580582   7.798549141  15.659130323
C        2.462429418   5.361450859   4.588630323
C        3.513858524   4.464381987  11.622122816
C        8.888858524   2.115618013  10.518877184
C        7.236141476  11.044381987  21.589377184
C        8.888858524   4.464381987  21.589377184
C        7.236141476   8.695618013  10.518877184
C        1.861141476  11.044381987  11.622122816
C        3.513858524   2.115618013   0.551622816
C        1.622153873  12.738641487  17.192856454
C        6.997153873   7.001358513   4.948143546
C        9.127856127   6.158641487  16.018643546
C        6.997153873  12.738641487  16.018643546
C        9.127846127   0.421358513   4.948143546
C        3.752856127   6.158641487  17.192856454
C        1.622153873   7.001358513   6.122356454
C        2.257594294  11.730950394  16.482506551
C        7.632594294   8.009049606   5.658493449
C        8.492415706   5.150950394  16.728993449
C        7.632594294  11.730950394  16.728993449
C        8.492415706   1.429049606   5.658493449
C        3.117415706   5.150950394  16.482506551
C        2.257594294   8.009049606   5.412006551
C        1.725437081   0.927219500  16.799290392
C        7.100437081   5.652780500   5.341709608
C        9.024562919   7.507219500  16.412209608
C        7.100437081   0.927219500  16.412209608
C        9.024562919  12.232780500   5.341709608
C        3.649562919   7.507219500  16.799290392
C        1.725437081   5.652780500   5.728790392
H        5.985241419   7.095578200   8.053718407
H        0.610241419  12.644421800  14.087281593
H        4.764758581   0.515578200   3.016781593
H        0.610241419   7.095578200   3.016781593
H        4.764758581   6.064421800  14.087281593
H       10.139758581   0.515578200   8.053718407
H        5.985241419  12.644421800  19.124218407
C        5.190741693   3.640208355  10.096689693
C       10.565741693   2.939791645  12.044310307
C        5.559268307  10.220208355   0.973810307
C       10.565741693   3.640208355   0.973810307
C        5.559268307   9.519791645  12.044310307
C        0.184268307  10.220208355  10.096689693
C        5.190741693   2.939791645  21.167189693
C        5.105907403   4.798854994   9.352501066
C       10.480897403   1.781145006  12.788498934
C        5.644102597  11.378854994   1.717998934
C       10.480897403   4.798854994   1.717998934
C        5.644102597   8.361145006  12.788498934
C        0.269102597  11.378854994   9.352501066
C        5.105907403   1.781145006  20.423001066
C        4.914092189   7.174323193   7.817464053
C       10.289092189  12.565676807  14.323535947
C        5.835907811   0.594323193   3.253035947
C       10.289092189   7.174323193   3.253035947
C        5.835907811   5.985676807  14.323535947
C        0.460907811   0.594323193   7.817464053
C        4.914092189  12.565676807  18.887964053
C        3.163158839   8.018129414   9.414314685
C        8.538158839  11.721870586  12.726685315
C        7.586841161   1.438129414   1.656185315
C        8.538158839   8.018129414   1.656185315
C        7.586841161   5.141870586  12.726685315
C        2.211841161   1.438129414   9.414314685
C        3.163158839  11.721870586  20.484814685
C        1.047788368   2.023252913  17.576294856
C        6.422788368   4.556747087   4.564705144
C        9.702221632   8.603252913  15.635205144
C        6.422788368   2.023252913  15.635205144
C        9.702221632  11.136747087   4.564705144
C        4.327221632   8.603252913  17.576294856
C        1.047788368   4.556747087   6.505794856
H        1.472862720   2.120887585  18.588249569
H        6.847862720   4.459112415   3.552750431
H        9.277137280   8.700887585  14.623250431
H        6.847862720   2.120887585  14.623250431
H        9.277137280  11.039112415   3.552750431
H        3.902137280   8.700887585  18.588249569
H        1.472862720   4.459112415   7.517749569
H       -0.022793089   1.812439155  17.706776042
H        5.352206911   4.767560845   4.434223958
H       10.772803089   8.392439155  15.504723958
H        5.352206911   1.812439155  15.504723958
H       10.772793089  11.347560845   4.434223958
H        5.397803089   8.392439155  17.706776042
H       -0.022793089   4.767560845   6.636276042
H        1.145069769   2.986327799  17.057779722
H        6.520069769   3.593672201   5.083220278
H        9.604940231   9.566327799  16.153720278
H        6.520069769   2.986327799  16.153720278
H        9.604930231  10.173672201   5.083220278
H        4.229940231   9.566327799  17.057779722
H        1.145069769   3.593672201   5.987279722
H        2.517631586   2.258837743  15.342761287
H        7.892631586   4.321162257   6.798238713
H        8.232368414   8.838837743  17.868738713
H        7.892631586   2.258837743  17.868738713
H        8.232368414  10.901162257   6.798238713
H        2.857368414   8.838837743  15.342761287
H        2.517631586   4.321162257   4.272261287
H        5.886118029   2.858446711   9.792571085
H        0.511118029   3.721553289  12.348428915
H        4.863881971   9.438446711   1.277928915
H        0.511118029   2.858446711   1.277928915
H        4.863881971  10.301553289  12.348428915
H       10.238881971   9.438446711   9.792571085
H        5.886118029   3.721553289  20.863071085
H        5.192784766   1.444266631  11.537266146
H       10.567784766   5.135733369  10.603733854
H        5.557215234   8.024266631  21.674233854
H       10.567784766   1.444266631  21.674233854
H        5.557215234  11.715733369  10.603733854
H        0.182215234   8.024266631  11.537266146
H        5.192784766   5.135733369   0.466766146
H        2.717480260   6.395843063  11.228413393
H        8.092480260   0.184156937  10.912586607
H        8.032519740  12.975843063  21.983086607
H        8.092480260   6.395843063  21.983086607
H        8.032519740   6.764156937  10.912586607
H        2.657519740  12.975843063  11.228413393
H        2.717480260   0.184156937   0.157913393
H        2.171952959  10.688562456  16.789667342
H        7.546952959   9.051437544   5.351332658
H        8.578047041   4.108562456  16.421832658
H        7.546952959  10.688562456  16.421832658
H        8.578047041   2.471437544   5.351332658
H        3.203047041   4.108562456  16.789667342
H        2.171952959   9.051437544   5.719167342
H        1.032657711  12.484586087  18.076538108
H        6.407657711   7.255413913   4.064461892
H        9.717342289   5.904586087  15.134961892
H        6.407657711  12.484586087  15.134961892
H        9.717342289   0.675413913   4.064461892
H        4.342342289   5.904586087  18.076538108
H        1.032657711   7.255413913   7.006038108
H        2.887427403   4.353397252  12.506669477
H        8.262427403   2.226602748   9.634330523
H        7.862572597  10.933397252  20.704830523
H        8.262427403   4.353397252  20.704830523
H        7.862572597   8.806602748   9.634330523
H        2.487572597  10.933397252  12.506669477
H        2.887427403   2.226602748   1.436169477
H        3.085400079   2.528564896  13.504248960
H        8.460400079   4.051435104   8.636751040
H        7.664599921   9.108564896  19.707251040
H        8.460400079   2.528564896  19.707251040
H        7.664599921  10.631435104   8.636751040
H        2.289599921   9.108564896  13.504248960
H        3.085400079   4.051435104   2.433748960
H        5.734863845   4.913720308   8.472046477
H        0.359863845   1.666279692  13.668953523
H        5.015136155  11.493720308   2.598453523
H        0.359863845   4.913720308   2.598453523
H        5.015136155   8.246279692  13.668953523
H       10.390136155  11.493720308   8.472046477
H        5.734863845   1.666279692  19.542546477
H        3.194547091   8.834702979   8.686379435
H        8.569547091  10.905297021  13.454620565
H        7.555452909   2.254702979   2.384120565
H        8.569547091   8.834702979   2.384120565
H        7.555452909   4.325297021  13.454620565
H        2.180452909   2.254702979   8.686379435
H        3.194547091  10.905297021  19.756879435
H        3.426361190   8.420378971  10.404499008
H        8.801361190  11.319621029  11.736500992
H        7.323638810   1.840378971   0.666000992
H        8.801361190   8.420378971   0.666000992
H        7.323638810   4.739621029  11.736500992
H        1.948638810   1.840378971  10.404499008
H        3.426361190  11.319621029  21.474999008
H        4.721630469   8.170356666   7.409498858
H       10.096630469  11.569643334  14.731501142
H        6.028369531   1.590356666   3.661001142
H       10.096630469   8.170356666   3.661001142
H        6.028369531   4.989643334  14.731501142
H        0.653369531   1.590356666   7.409498858
H        4.721630469  11.569643334  18.479998858
H        2.132891568   7.631529506   9.461195801
H        7.507891568  12.108470494  12.679804199
H        8.617108432   1.051529506   1.609304199
H        7.507891568   7.631529506   1.609304199
H        8.617108432   5.528470494  12.679804199
H        3.242108432   1.051529506   9.461195801
H        2.132891568  12.108470494  20.531695801
H        4.236104793  11.569261321  13.986919903
H        9.611104793   8.170738679   8.154080097
H        6.513895207   4.989261321  19.224580097
H        9.611104793  11.569261321  19.224580097
H        6.513895207   1.590738679   8.154080097
H        1.138895207   4.989261321  13.986919903
H        4.236104793   8.170738679   2.916419903
H        4.678475235   6.431926122   7.038911998
H       10.053475235   0.148073878  15.102088002
H        6.071524765  13.011926122   4.031588002
H       10.053475235   6.431926122   4.031588002
H        6.071524765   6.728073878  15.102088002
H        0.696524765  13.011926122   7.038911998
H        4.678475235   0.148073878  18.109411998
End final coordinates



     Writing output data file 2hc_2_442.save
 
     init_run     :   5378.74s CPU   5403.28s WALL (       1 calls)
     electrons    : 132458.36s CPU 133022.70s WALL (       1 calls)
     forces       :   2142.25s CPU   2148.81s WALL (       1 calls)

     Called by init_run:
     wfcinit      :   5360.25s CPU   5383.63s WALL (       1 calls)
     potinit      :      5.23s CPU      5.29s WALL (       1 calls)

     Called by electrons:
     c_bands      : 121606.76s CPU 122127.74s WALL (      13 calls)
     sum_band     :  10744.81s CPU  10779.50s WALL (      13 calls)
     v_of_rho     :     13.86s CPU     13.93s WALL (      14 calls)
     newd         :     62.29s CPU     71.11s WALL (      14 calls)
     mix_rho      :      2.95s CPU      3.12s WALL (      13 calls)

     Called by c_bands:
     init_us_2    :    394.35s CPU    396.35s WALL (     504 calls)
     cegterg      : 120184.08s CPU 120699.65s WALL (     234 calls)

     Called by sum_band:
     sum_band:bec :      1.90s CPU      1.92s WALL (     234 calls)
     addusdens    :     57.34s CPU     66.00s WALL (      13 calls)

     Called by *egterg:
     h_psi        :  62886.17s CPU  63039.84s WALL (    1174 calls)
     s_psi        :  21740.07s CPU  21785.07s WALL (    1174 calls)
     g_psi        :     94.91s CPU     95.21s WALL (     922 calls)
     cdiaghg      :   3640.78s CPU   3648.57s WALL (    1156 calls)

     Called by h_psi:
     h_psi:pot    :  62727.30s CPU  62877.00s WALL (    1174 calls)
     h_psi:calbec :  19848.61s CPU  19889.94s WALL (    1174 calls)
     vloc_psi     :  21135.63s CPU  21199.02s WALL (    1174 calls)
     add_vuspsi   :  21743.02s CPU  21788.00s WALL (    1174 calls)

     General routines
     calbec       :  28345.42s CPU  28404.20s WALL (    1480 calls)
     fft          :      7.76s CPU      8.09s WALL (     183 calls)
     fftw         :  21873.81s CPU  21935.79s WALL (  709158 calls)
     davcio       :      0.04s CPU      6.63s WALL (      18 calls)
 
     Parallel routines
     fft_scatter  :   2601.10s CPU   2610.83s WALL (  709341 calls)
 
     PWSCF        :     1d   14h53m CPU        1d   15h 3m WALL

 
   This run was terminated on:   1:20:25  18Oct2017            

=------------------------------------------------------------------------------=
   JOB DONE.
=------------------------------------------------------------------------------=
