
     Program PWSCF v.6.1 (svn rev. 13369) starts on 10Nov2017 at 12:54: 6 

     This program is part of the open-source Quantum ESPRESSO suite
     for quantum simulation of materials; please cite
         "P. Giannozzi et al., J. Phys.:Condens. Matter 21 395502 (2009);
          URL http://www.quantum-espresso.org", 
     in publications or presentations arising from this work. More details at
     http://www.quantum-espresso.org/quote

     Parallel version (MPI), running on     1 processors
     Waiting for input...
     Reading input from standard input

     Current dimensions of program PWSCF are:
     Max number of different atomic species (ntypx) = 10
     Max number of k-points (npk) =  40000
     Max angular momentum in pseudopotentials (lmaxx) =  3
     Message from routine iosys:
     london is obsolete, use "vdw_corr='grimme-d2'" instead

     IMPORTANT: XC functional enforced from input :
     Exchange-correlation      = PBE ( 1  4  3  4 0 0)
     Any further DFT definition will be discarded
     Please, verify this is what you really want

               file C.pbe-rrkjus.UPF: wavefunction(s)  2S 2P renormalized
               file H.pbe-rrkjus.UPF: wavefunction(s)  1S renormalized
               file O.pbe-rrkjus.UPF: wavefunction(s)  2S renormalized
               file N.pbe-rrkjus.UPF: wavefunction(s)  2S renormalized

     -------------------------------------
     Parameters for Dispersion Correction:
     -------------------------------------
       atom      VdW radius       C_6     

        C          2.744         60.710
        H          1.892          4.857
        O          2.536         24.284
        N          2.640         42.670

     Subspace diagonalization in iterative solution of the eigenvalue problem:
     a serial algorithm will be used

 
     G-vector sticks info
     --------------------
     sticks:   dense  smooth     PW     G-vecs:    dense   smooth      PW
     Sum        4907    4907   1375               232865   232865   34765
 


     bravais-lattice index     =            0
     lattice parameter (alat)  =      17.3001  a.u.
     unit-cell volume          =   10490.7385 (a.u.)^3
     number of atoms/cell      =          160
     number of atomic types    =            4
     number of electrons       =       432.00
     number of Kohn-Sham states=          216
     kinetic-energy cutoff     =      30.0000  Ry
     charge density cutoff     =     120.0000  Ry
     convergence threshold     =      1.0E-07
     mixing beta               =       0.7000
     number of iterations used =            8  plain     mixing
     Exchange-correlation      = PBE ( 1  4  3  4 0 0)
     nstep                     =           50


     celldm(1)=  17.300066  celldm(2)=   0.000000  celldm(3)=   0.000000
     celldm(4)=   0.000000  celldm(5)=   0.000000  celldm(6)=   0.000000

     crystal axes: (cart. coord. in units of alat)
               a(1) = (   1.000000   0.000000   0.000000 )  
               a(2) = (   0.000000   1.716913   0.000000 )  
               a(3) = (  -0.691800   0.000000   1.180088 )  

     reciprocal axes: (cart. coord. in units 2 pi/alat)
               b(1) = (  1.000000  0.000000  0.586227 )  
               b(2) = (  0.000000  0.582441  0.000000 )  
               b(3) = (  0.000000  0.000000  0.847394 )  


     PseudoPot. # 1 for C  read from file:
     /data/home/btx156/espresso/pseudo/C.pbe-rrkjus.UPF
     MD5 check sum: 00fb224312de0c5b6853bd333518df6f
     Pseudo is Ultrasoft, Zval =  4.0
     Generated by new atomic code, or converted to UPF format
     Using radial grid of  627 points,  4 beta functions with: 
                l(1) =   0
                l(2) =   0
                l(3) =   1
                l(4) =   1
     Q(r) pseudized with 0 coefficients 


     PseudoPot. # 2 for H  read from file:
     /data/home/btx156/espresso/pseudo/H.pbe-rrkjus.UPF
     MD5 check sum: 7cc9d459525c9a0585f487a71c3c9563
     Pseudo is Ultrasoft, Zval =  1.0
     Generated by new atomic code, or converted to UPF format
     Using radial grid of 1061 points,  2 beta functions with: 
                l(1) =   0
                l(2) =   0
     Q(r) pseudized with 0 coefficients 


     PseudoPot. # 3 for O  read from file:
     /data/home/btx156/espresso/pseudo/O.pbe-rrkjus.UPF
     MD5 check sum: 390ba29e75625707450f3bd3f0eb6be9
     Pseudo is Ultrasoft, Zval =  6.0
     Generated by new atomic code, or converted to UPF format
     Using radial grid of 1269 points,  4 beta functions with: 
                l(1) =   0
                l(2) =   0
                l(3) =   1
                l(4) =   1
     Q(r) pseudized with 0 coefficients 


     PseudoPot. # 4 for N  read from file:
     /data/home/btx156/espresso/pseudo/N.pbe-rrkjus.UPF
     MD5 check sum: 0c3fbe5807a93f9ba59d5a7019aa238b
     Pseudo is Ultrasoft, Zval =  5.0
     Generated by new atomic code, or converted to UPF format
     Using radial grid of 1257 points,  4 beta functions with: 
                l(1) =   0
                l(2) =   0
                l(3) =   1
                l(4) =   1
     Q(r) pseudized with 0 coefficients 


     atomic species   valence    mass     pseudopotential
        C              4.00    12.00000     C ( 1.00)
        H              1.00     1.00790     H ( 1.00)
        O              6.00    15.99940     O ( 1.00)
        N              5.00    14.00670     N ( 1.00)

      4 Sym. Ops., with inversion, found ( 2 have fractional translation)



   Cartesian axes

     site n.     atom                  positions (alat units)
         1           C   tau(   1) = (   0.0829949   0.3594028   0.7942416  )
         2           C   tau(   2) = (   0.0289568   0.4606058   0.6934329  )
         3           H   tau(   3) = (   0.0536579   0.4434239   0.5781906  )
         4           C   tau(   4) = (  -0.0540076   0.5798948   0.7383631  )
         5           C   tau(   5) = (  -0.0860573   0.5954402   0.8880037  )
         6           H   tau(   6) = (  -0.1533651   0.6865938   0.9244492  )
         7           C   tau(   7) = (  -0.0331588   0.4962003   0.9889919  )
         8           H   tau(   8) = (  -0.0593021   0.5140245   1.1036240  )
         9           C   tau(   9) = (   0.0534721   0.3762237   0.9464946  )
        10           C   tau(  10) = (   0.1165480   0.2714220   1.0504012  )
        11           C   tau(  11) = (   0.7820037   0.2855848   0.0247729  )
        12           H   tau(  12) = (   0.7112192   0.3732277   0.0624706  )
        13           C   tau(  13) = (   0.8412559   0.1901561   0.1231981  )
        14           H   tau(  14) = (   0.9099072   0.1029851   0.0789014  )
        15           C   tau(  15) = (   0.8221463   0.1903401   0.2779802  )
        16           C   tau(  16) = (   0.7417210   0.2979457   0.3543544  )
        17           H   tau(  17) = (   0.6930383   0.3886702   0.2946066  )
        18           C   tau(  18) = (  -0.2788922   0.2904246   0.5030348  )
        19           H   tau(  19) = (   0.6574843   0.3752911   0.5565032  )
        20           C   tau(  20) = (  -0.2188733   0.1738959   0.5871286  )
        21           C   tau(  21) = (  -0.1362247   0.0664048   0.5112075  )
        22           H   tau(  22) = (  -0.0874325   1.6925467   0.5702466  )
        23           C   tau(  23) = (  -0.1170057   0.0758184   0.3621178  )
        24           H   tau(  24) = (  -0.0541830  -0.0081258   0.3055998  )
        25           C   tau(  25) = (  -0.3322309   0.2732835   0.8069743  )
        26           H   tau(  26) = (  -0.2882292   0.3845428   0.7945641  )
        27           H   tau(  27) = (  -0.3372978   0.2475234   0.9235643  )
        28           H   tau(  28) = (  -0.4443527   0.2710365   0.7629880  )
        29           C   tau(  29) = (  -0.1767905   0.0472457   0.8174424  )
        30           H   tau(  30) = (  -0.2244058   1.6580340   0.7863763  )
        31           H   tau(  31) = (  -0.1976217   0.0653606   0.9337877  )
        32           H   tau(  32) = (  -0.0577879   0.0425902   0.8011142  )
        33           C   tau(  33) = (  -0.1066100   0.6902688   0.6292397  )
        34           H   tau(  34) = (  -0.1597505   0.7834471   0.6827313  )
        35           H   tau(  35) = (  -0.1849795   0.6418219   0.5518626  )
        36           H   tau(  36) = (  -0.0146890   0.7326226   0.5642609  )
        37           N   tau(  37) = (  -0.2400103   0.1665632   0.7337342  )
        38           O   tau(  38) = (   0.1655132   0.2475287   0.7454131  )
        39           H   tau(  39) = (   0.1937316   0.1923380   0.8409218  )
        40           O   tau(  40) = (   0.1966336   0.1672681   1.0010010  )
        41           H   tau(  41) = (  -0.0913583   1.3018806   1.1919408  )
        42           H   tau(  42) = (   0.2545422   1.2734907   0.6018973  )
        43           H   tau(  43) = (   0.3995584   0.4150340  -0.0118528  )
        44           C   tau(  44) = (   0.0163083   1.4383515   1.0317694  )
        45           C   tau(  45) = (   0.3622077   1.1370187   0.4417249  )
        46           C   tau(  46) = (   0.2918918   0.2785619   0.1483186  )
        47           C   tau(  47) = (   0.0483579   1.4538969   0.8821288  )
        48           C   tau(  48) = (   0.3942573   1.1214733   0.2920842  )
        49           C   tau(  49) = (   0.2598421   0.2630165   0.2979592  )
        50           H   tau(  50) = (   0.1156647   1.5450505   0.8456822  )
        51           H   tau(  51) = (   0.4615652   1.0303197   0.2556388  )
        52           H   tau(  52) = (   0.1925354   0.1718629   0.3344058  )
        53           C   tau(  53) = (  -0.0045406   1.3546571   0.7811407  )
        54           C   tau(  54) = (   0.3413588   1.2207131   0.1910961  )
        55           C   tau(  55) = (   0.3127406   0.3622564   0.3989473  )
        56           H   tau(  56) = (   0.0216017   1.3724813   0.6665075  )
        57           H   tau(  57) = (   0.3675022   1.2028889   0.0764640  )
        58           H   tau(  58) = (   0.2865984   0.3444322   0.5135805  )
        59           C   tau(  59) = (  -0.0911725   1.2346804   0.8236379  )
        60           C   tau(  60) = (   0.2547280   1.3406897   0.2335934  )
        61           C   tau(  61) = (   0.3993726   0.4822330   0.3564500  )
        62           C   tau(  62) = (  -0.1542474   1.1298787   0.7197303  )
        63           C   tau(  63) = (   0.1916520   1.4454915   0.1296868  )
        64           C   tau(  64) = (   0.4624474   0.5870348   0.4603577  )
        65           C   tau(  65) = (  -0.1279043   1.1440415   0.5652716  )
        66           C   tau(  66) = (  -0.4738037   1.4313286   1.1553151  )
        67           C   tau(  67) = (   0.4361043   0.5728719   0.6148164  )
        68           H   tau(  68) = (  -0.0571187   1.2316844   0.5275739  )
        69           H   tau(  69) = (  -0.4030192   1.3436858   1.1176174  )
        70           H   tau(  70) = (   0.3653187   0.4852290   0.6525141  )
        71           C   tau(  71) = (  -0.1871554   1.0486128   0.4668453  )
        72           C   tau(  72) = (  -0.5330559   1.5267574   1.0568899  )
        73           C   tau(  73) = (   0.4953554   0.6683006   0.7132426  )
        74           H   tau(  74) = (  -0.2558067   0.9614418   0.5111431  )
        75           H   tau(  75) = (  -0.6017072   1.6139284   1.1011865  )
        76           H   tau(  76) = (   0.5640067   0.7554716   0.6689449  )
        77           C   tau(  77) = (  -0.1680457   1.0487969   0.3120633  )
        78           C   tau(  78) = (  -0.5139462   1.5265733   0.9021078  )
        79           C   tau(  79) = (   0.4762458   0.6681166   0.8680247  )
        80           C   tau(  80) = (  -0.0876216   1.1564024   0.2356901  )
        81           C   tau(  81) = (  -0.4335210   1.4189678   0.8257336  )
        82           C   tau(  82) = (   0.3958216   0.5605111   0.9443979  )
        83           C   tau(  83) = (   0.0689095   1.5487255   1.1408928  )
        84           C   tau(  84) = (   0.4148100   1.0266447   0.5508483  )
        85           C   tau(  85) = (   0.2392905   0.1681879   0.0391952  )
        86           H   tau(  86) = (  -0.0389388   1.2471269   0.2954379  )
        87           H   tau(  87) = (  -0.3848382   1.3282433   0.8854813  )
        88           H   tau(  88) = (   0.3471389   0.4697865   0.8846501  )
        89           C   tau(  89) = (   0.9329916   1.1488813   0.0870087  )
        90           C   tau(  90) = (   0.5870922   1.4264889   0.6770532  )
        91           C   tau(  91) = (  -0.6247916   0.5680322   1.0930793  )
        92           H   tau(  92) = (  -0.0033838   1.2337478   0.0335402  )
        93           H   tau(  93) = (  -0.3492843   1.3416224   0.6235848  )
        94           H   tau(  94) = (   0.3115839   0.4831656   1.1465478  )
        95           C   tau(  95) = (   0.8729738   1.0323526   0.0029149  )
        96           C   tau(  96) = (   0.5270733   1.5430176   0.5929594  )
        97           C   tau(  97) = (  -0.5647738   0.6845609   1.1771731  )
        98           C   tau(  98) = (   0.7903242   0.9248616   0.0788370  )
        99           C   tau(  99) = (   0.4444248   1.6505086   0.6688804  )
       100           C   tau( 100) = (  -0.4821241   0.7920519   1.1012510  )
       101           H   tau( 101) = (   0.7415319   0.8340899   0.0197979  )
       102           H   tau( 102) = (   0.3956325   0.0243668   0.6098414  )
       103           H   tau( 103) = (  -0.4333319   0.8828235   1.1602901  )
       104           C   tau( 104) = (   0.7711063   0.9342751   0.2279257  )
       105           C   tau( 105) = (   0.4252058   1.6410951   0.8179702  )
       106           C   tau( 106) = (  -0.4629062   0.7826384   0.9521623  )
       107           H   tau( 107) = (   0.7082825   0.8503309   0.2844437  )
       108           H   tau( 108) = (   0.3623831   1.7250392   0.8744882  )
       109           H   tau( 109) = (  -0.4000825   0.8665825   0.8956443  )
       110           C   tau( 110) = (   0.2945305   1.1317402   0.9631582  )
       111           C   tau( 111) = (   0.6404310   1.4436299   0.3731137  )
       112           C   tau( 112) = (   0.0136695   0.5851732   0.2169298  )
       113           H   tau( 113) = (   0.2505288   1.2429996   0.9755673  )
       114           H   tau( 114) = (   0.5964293   1.3323706   0.3855239  )
       115           H   tau( 115) = (   0.0576713   0.4739139   0.2045207  )
       116           H   tau( 116) = (   0.2995974   1.1059801   0.8465682  )
       117           H   tau( 117) = (   0.6454979   1.4693901   0.2565237  )
       118           H   tau( 118) = (   0.0086027   0.6109334   0.3335198  )
       119           H   tau( 119) = (   0.4066522   1.1294932   1.0071434  )
       120           H   tau( 120) = (   0.7525527   1.4458770   0.4171000  )
       121           H   tau( 121) = (  -0.0984522   0.5874202   0.1729446  )
       122           C   tau( 122) = (   0.1390901   0.9057024   0.9526901  )
       123           C   tau( 123) = (   0.4849906   1.6696677   0.3626456  )
       124           C   tau( 124) = (   0.1691100   0.8112110   0.2273979  )
       125           H   tau( 125) = (   0.1867064   0.7995772   0.9837562  )
       126           H   tau( 126) = (   0.5326058   0.0588795   0.3937117  )
       127           H   tau( 127) = (   0.1214936   0.9173362   0.1963318  )
       128           H   tau( 128) = (   0.1599212   0.9238173   0.8363437  )
       129           H   tau( 129) = (   0.5058217   1.6515529   0.2463003  )
       130           H   tau( 130) = (   0.1482788   0.7930962   0.3437442  )
       131           H   tau( 131) = (   0.0200886   0.9010470   0.9690172  )
       132           H   tau( 132) = (   0.3659880   1.6743232   0.3789737  )
       133           H   tau( 133) = (   0.2881115   0.8158665   0.2110708  )
       134           H   tau( 134) = (   0.1220512   1.6419038   1.0874012  )
       135           H   tau( 135) = (   0.4679506   0.9334663   0.4973567  )
       136           H   tau( 136) = (   0.1861489   0.0750096   0.0926868  )
       137           H   tau( 137) = (   0.8390800   1.5002786   0.0381819  )
       138           H   tau( 138) = (   0.4931795   1.0750916   0.6282254  )
       139           H   tau( 139) = (  -0.5308800   0.2166349   1.1419061  )
       140           H   tau( 140) = (   0.6687885   1.5910794   0.0257825  )
       141           H   tau( 141) = (   0.3228891   0.9842908   0.6158271  )
       142           H   tau( 142) = (  -0.3605884   0.1258341   1.1543054  )
       143           N   tau( 143) = (   0.2023109   1.0250199   1.0363983  )
       144           N   tau( 144) = (   0.5482103   1.5503502   0.4463538  )
       145           N   tau( 145) = (   0.1058891   0.6918935   0.1436896  )
       146           O   tau( 146) = (  -0.2032136   1.1059854   1.0247184  )
       147           O   tau( 147) = (   0.1426869   1.4693847   0.4346749  )
       148           O   tau( 148) = (   0.5114137   0.6109280   0.1553696  )
       149           H   tau( 149) = (  -0.2314309   1.0507947   0.9292097  )
       150           H   tau( 150) = (   0.1144685   1.5245755   0.3391662  )
       151           H   tau( 151) = (   0.5396310   0.6661187   0.2508783  )
       152           O   tau( 152) = (  -0.2343329   1.0257248   0.7691305  )
       153           O   tau( 153) = (   0.1115665   1.5496454   0.1790870  )
       154           O   tau( 154) = (   0.5425330   0.6911886   0.4109575  )
       155           C   tau( 155) = (  -0.1206943   1.2178595   0.9758899  )
       156           C   tau( 156) = (   0.2252051   1.3575106   0.3858464  )
       157           C   tau( 157) = (   0.4288943   0.4990539   0.2041981  )
       158           C   tau( 158) = (  -0.0666562   1.3190625   1.0766985  )
       159           C   tau( 159) = (   0.2792432   1.2563077   0.4866551  )
       160           C   tau( 160) = (   0.3748562   0.3978509   0.1033895  )

     number of k points=    20
                       cart. coord. in units 2pi/alat
        k(    1) = (   0.0000000   0.0000000   0.0000000), wk =   0.0625000
        k(    2) = (   0.0000000   0.0000000   0.2118486), wk =   0.1250000
        k(    3) = (   0.0000000   0.0000000  -0.4236972), wk =   0.0625000
        k(    4) = (   0.0000000  -0.2912203   0.0000000), wk =   0.0625000
        k(    5) = (   0.0000000  -0.2912203   0.2118486), wk =   0.1250000
        k(    6) = (   0.0000000  -0.2912203  -0.4236972), wk =   0.0625000
        k(    7) = (   0.2500000   0.0000000   0.1465568), wk =   0.1250000
        k(    8) = (   0.2500000   0.0000000   0.3584054), wk =   0.1250000
        k(    9) = (   0.2500000   0.0000000  -0.2771404), wk =   0.1250000
        k(   10) = (   0.2500000   0.0000000  -0.0652918), wk =   0.1250000
        k(   11) = (   0.2500000  -0.2912203   0.1465568), wk =   0.1250000
        k(   12) = (   0.2500000  -0.2912203   0.3584054), wk =   0.1250000
        k(   13) = (   0.2500000  -0.2912203  -0.2771404), wk =   0.1250000
        k(   14) = (   0.2500000  -0.2912203  -0.0652918), wk =   0.1250000
        k(   15) = (  -0.5000000   0.0000000  -0.2931137), wk =   0.0625000
        k(   16) = (  -0.5000000   0.0000000  -0.0812651), wk =   0.1250000
        k(   17) = (  -0.5000000   0.0000000  -0.7168109), wk =   0.0625000
        k(   18) = (  -0.5000000  -0.2912203  -0.2931137), wk =   0.0625000
        k(   19) = (  -0.5000000  -0.2912203  -0.0812651), wk =   0.1250000
        k(   20) = (  -0.5000000  -0.2912203  -0.7168109), wk =   0.0625000

     Dense  grid:   232865 G-vectors     FFT dimensions: (  64, 108,  90)

     Estimated max dynamical RAM per process >    3320.52MB

     Initial potential from superposition of free atoms

     starting charge  424.68464, renormalised to  432.00000
     Starting wfc are  412 randomized atomic wfcs

     total cpu time spent up to now is      304.5 secs

     Self-consistent Calculation

     iteration #  1     ecut=    30.00 Ry     beta=0.70
     Davidson diagonalization with overlap
     ethr =  1.00E-02,  avg # of iterations =  2.0

     total cpu time spent up to now is      900.8 secs

     total energy              =   -1237.37412615 Ry
     Harris-Foulkes estimate   =   -1255.93316231 Ry
     estimated scf accuracy    <      28.69170646 Ry

     iteration #  2     ecut=    30.00 Ry     beta=0.70
     Davidson diagonalization with overlap
     ethr =  6.64E-03,  avg # of iterations =  3.0

     total cpu time spent up to now is     1502.3 secs

     total energy              =   -1240.30308840 Ry
     Harris-Foulkes estimate   =   -1248.78117929 Ry
     estimated scf accuracy    <      14.95914367 Ry

     iteration #  3     ecut=    30.00 Ry     beta=0.70
     Davidson diagonalization with overlap
     ethr =  3.46E-03,  avg # of iterations =  4.0

     total cpu time spent up to now is     2115.8 secs

     total energy              =   -1243.82753217 Ry
     Harris-Foulkes estimate   =   -1245.62724312 Ry
     estimated scf accuracy    <       3.62527409 Ry

     iteration #  4     ecut=    30.00 Ry     beta=0.70
     Davidson diagonalization with overlap
     ethr =  8.39E-04,  avg # of iterations =  4.0

     total cpu time spent up to now is     2685.8 secs

     total energy              =   -1244.63505106 Ry
     Harris-Foulkes estimate   =   -1244.95233362 Ry
     estimated scf accuracy    <       0.70219021 Ry

     iteration #  5     ecut=    30.00 Ry     beta=0.70
     Davidson diagonalization with overlap
     ethr =  1.63E-04,  avg # of iterations =  4.0

     total cpu time spent up to now is     3249.9 secs

     total energy              =   -1244.77244362 Ry
     Harris-Foulkes estimate   =   -1244.79842193 Ry
     estimated scf accuracy    <       0.05438595 Ry

     iteration #  6     ecut=    30.00 Ry     beta=0.70
     Davidson diagonalization with overlap
     ethr =  1.26E-05,  avg # of iterations =  4.9

     total cpu time spent up to now is     3849.8 secs

     total energy              =   -1244.78538455 Ry
     Harris-Foulkes estimate   =   -1244.79016698 Ry
     estimated scf accuracy    <       0.01091978 Ry

     iteration #  7     ecut=    30.00 Ry     beta=0.70
     Davidson diagonalization with overlap
     ethr =  2.53E-06,  avg # of iterations =  5.0

     total cpu time spent up to now is     4436.6 secs

     total energy              =   -1244.78757399 Ry
     Harris-Foulkes estimate   =   -1244.78876580 Ry
     estimated scf accuracy    <       0.00290221 Ry

     iteration #  8     ecut=    30.00 Ry     beta=0.70
     Davidson diagonalization with overlap
     ethr =  6.72E-07,  avg # of iterations =  4.8

     total cpu time spent up to now is     5008.2 secs

     total energy              =   -1244.78817197 Ry
     Harris-Foulkes estimate   =   -1244.78828325 Ry
     estimated scf accuracy    <       0.00026358 Ry

     iteration #  9     ecut=    30.00 Ry     beta=0.70
     Davidson diagonalization with overlap
     ethr =  6.10E-08,  avg # of iterations =  4.8

     total cpu time spent up to now is     5614.3 secs

     total energy              =   -1244.78823111 Ry
     Harris-Foulkes estimate   =   -1244.78825910 Ry
     estimated scf accuracy    <       0.00006304 Ry

     iteration # 10     ecut=    30.00 Ry     beta=0.70
     Davidson diagonalization with overlap
     ethr =  1.46E-08,  avg # of iterations =  4.0

     total cpu time spent up to now is     6165.3 secs

     total energy              =   -1244.78824410 Ry
     Harris-Foulkes estimate   =   -1244.78824802 Ry
     estimated scf accuracy    <       0.00000904 Ry

     iteration # 11     ecut=    30.00 Ry     beta=0.70
     Davidson diagonalization with overlap
     ethr =  2.09E-09,  avg # of iterations =  3.6

     total cpu time spent up to now is     6741.2 secs

     total energy              =   -1244.78824617 Ry
     Harris-Foulkes estimate   =   -1244.78824645 Ry
     estimated scf accuracy    <       0.00000076 Ry

     iteration # 12     ecut=    30.00 Ry     beta=0.70
     Davidson diagonalization with overlap
     ethr =  1.75E-10,  avg # of iterations =  4.0

     total cpu time spent up to now is     7330.0 secs

     total energy              =   -1244.78824635 Ry
     Harris-Foulkes estimate   =   -1244.78824640 Ry
     estimated scf accuracy    <       0.00000012 Ry

     iteration # 13     ecut=    30.00 Ry     beta=0.70
     Davidson diagonalization with overlap
     ethr =  2.75E-11,  avg # of iterations =  3.9

     total cpu time spent up to now is     7928.5 secs

     End of self-consistent calculation

          k = 0.0000 0.0000 0.0000 ( 29063 PWs)   bands (ev):

   -20.5371 -20.5367 -20.5355 -20.5353 -19.4487 -19.4478 -19.4471 -19.4464
   -18.1797 -18.1789 -18.1564 -18.1557 -15.4421 -15.4263 -15.4007 -15.3982
   -15.3869 -15.3645 -15.3532 -15.3432 -13.9694 -13.9635 -13.9299 -13.9178
   -13.4806 -13.4465 -13.4453 -13.4207 -12.8177 -12.8003 -12.7980 -12.7793
   -12.5145 -12.5126 -12.4895 -12.4845 -12.3642 -12.3593 -12.3229 -12.3187
   -12.0182 -11.9986 -11.9945 -11.9697 -11.5553 -11.5507 -11.4983 -11.4854
   -10.8259 -10.8249 -10.8238 -10.8025  -9.5982  -9.5679  -9.5412  -9.5106
    -9.2330  -9.2283  -9.1506  -9.1493  -9.1350  -9.1094  -9.0580  -9.0352
    -8.8824  -8.8178  -8.8134  -8.8002  -8.3044  -8.3001  -8.2394  -8.1905
    -7.5299  -7.5192  -7.4783  -7.4574  -7.1884  -7.1301  -7.1253  -7.0754
    -6.7806  -6.7703  -6.7681  -6.7414  -6.3684  -6.3585  -6.3542  -6.3286
    -6.1367  -6.1156  -6.0837  -6.0801  -5.9517  -5.9364  -5.8660  -5.8262
    -5.8034  -5.7996  -5.6002  -5.5968  -5.5688  -5.5445  -5.5303  -5.4918
    -5.1667  -5.1263  -5.1215  -5.1135  -5.1018  -4.9686  -4.9522  -4.8995
    -4.8464  -4.7505  -4.7215  -4.6959  -4.6789  -4.6483  -4.5564  -4.5181
    -4.5161  -4.5058  -4.4821  -4.4805  -4.4074  -4.3931  -4.3389  -4.3079
    -4.2967  -4.2495  -4.2186  -4.2085  -4.2036  -4.1781  -4.1263  -4.1216
    -3.9953  -3.9912  -3.9643  -3.9319  -3.8936  -3.8125  -3.8086  -3.7994
    -3.6928  -3.6738  -3.6647  -3.6015  -3.5849  -3.5445  -3.4623  -3.4237
    -3.3332  -3.3308  -3.2901  -3.2808  -3.2503  -3.2398  -3.2245  -3.2071
    -3.1834  -3.1484  -3.1273  -3.1099  -3.0108  -2.9634  -2.9622  -2.9371
    -2.9012  -2.8804  -2.8596  -2.8555  -2.8161  -2.8097  -2.7269  -2.7059
    -2.3725  -2.3187  -2.1535  -2.1210  -2.1121  -2.1058  -2.0647  -2.0571
    -2.0392  -2.0179  -1.9995  -1.9465  -1.8770  -1.8749  -1.8615  -1.8574
    -0.6450  -0.6290  -0.6138  -0.6113  -0.5596  -0.5356  -0.5170  -0.4135
    -0.3768  -0.2934  -0.2733  -0.2641  -0.1574  -0.1412  -0.1376  -0.1004
     0.2759   0.2993   0.3173   0.3243   1.1663   1.1784   1.1854   1.1976

          k = 0.0000 0.0000 0.2118 ( 29076 PWs)   bands (ev):

   -20.5368 -20.5365 -20.5357 -20.5356 -19.4485 -19.4476 -19.4474 -19.4466
   -18.1796 -18.1790 -18.1563 -18.1558 -15.4394 -15.4252 -15.4102 -15.4066
   -15.3799 -15.3560 -15.3536 -15.3441 -13.9570 -13.9490 -13.9312 -13.9247
   -13.4772 -13.4662 -13.4478 -13.4418 -12.8138 -12.8028 -12.7939 -12.7804
   -12.5135 -12.4959 -12.4931 -12.4716 -12.3609 -12.3550 -12.3305 -12.3250
   -12.0175 -12.0020 -11.9914 -11.9728 -11.5667 -11.5288 -11.5115 -11.4667
   -10.8490 -10.8352 -10.8112 -10.7973  -9.5982  -9.5854  -9.5394  -9.5189
    -9.2278  -9.2187  -9.1641  -9.1447  -9.1281  -9.1057  -9.0555  -9.0317
    -8.8671  -8.8236  -8.8182  -8.7981  -8.3159  -8.3064  -8.2305  -8.1939
    -7.5395  -7.5341  -7.4640  -7.4588  -7.1810  -7.1254  -7.1190  -7.0875
    -6.7865  -6.7813  -6.7475  -6.7433  -6.3785  -6.3460  -6.3426  -6.3287
    -6.1461  -6.1147  -6.1070  -6.0645  -5.9349  -5.9167  -5.8712  -5.8352
    -5.7956  -5.7940  -5.6017  -5.5877  -5.5650  -5.5461  -5.5278  -5.4836
    -5.1705  -5.1638  -5.1449  -5.0872  -5.0660  -5.0068  -4.9787  -4.9086
    -4.8425  -4.7484  -4.7144  -4.6910  -4.6652  -4.6163  -4.5914  -4.5708
    -4.4879  -4.4782  -4.4494  -4.4391  -4.4045  -4.3729  -4.3557  -4.3417
    -4.2897  -4.2531  -4.2332  -4.2233  -4.1882  -4.1864  -4.1287  -4.1210
    -3.9954  -3.9830  -3.9796  -3.9385  -3.8690  -3.8526  -3.8431  -3.8038
    -3.7012  -3.6412  -3.6201  -3.5958  -3.5927  -3.5564  -3.4562  -3.4520
    -3.3657  -3.3656  -3.2958  -3.2737  -3.2470  -3.2456  -3.2345  -3.1992
    -3.1643  -3.1599  -3.1245  -3.1234  -3.0383  -2.9979  -2.9430  -2.9332
    -2.8971  -2.8799  -2.8477  -2.8475  -2.8147  -2.8027  -2.7159  -2.7106
    -2.3186  -2.2807  -2.1431  -2.1111  -2.1107  -2.1031  -2.0784  -2.0533
    -2.0389  -2.0021  -1.9748  -1.9315  -1.8954  -1.8803  -1.8660  -1.8472
    -0.6757  -0.6614  -0.6068  -0.5922  -0.5629  -0.5430  -0.5341  -0.4686
    -0.3527  -0.3077  -0.2923  -0.2702  -0.1572  -0.1398  -0.1304  -0.0996
     0.3242   0.3471   0.3505   0.3686   1.1149   1.1277   1.1381   1.1449

          k = 0.0000 0.0000-0.4237 ( 29068 PWs)   bands (ev):

   -20.5362 -20.5362 -20.5361 -20.5361 -19.4480 -19.4479 -19.4472 -19.4471
   -18.1795 -18.1790 -18.1563 -18.1558 -15.4279 -15.4278 -15.4193 -15.4192
   -15.3637 -15.3636 -15.3469 -15.3468 -13.9376 -13.9375 -13.9331 -13.9330
   -13.4798 -13.4798 -13.4575 -13.4575 -12.8072 -12.8071 -12.7857 -12.7856
   -12.4937 -12.4935 -12.4818 -12.4816 -12.3478 -12.3477 -12.3409 -12.3408
   -12.0109 -12.0107 -11.9818 -11.9816 -11.5436 -11.5436 -11.4854 -11.4854
   -10.8319 -10.8317 -10.8235 -10.8232  -9.5942  -9.5942  -9.5335  -9.5335
    -9.1925  -9.1924  -9.1675  -9.1674  -9.1030  -9.1029  -9.0749  -9.0749
    -8.8416  -8.8415  -8.8069  -8.8069  -8.3169  -8.3168  -8.2058  -8.2057
    -7.5469  -7.5468  -7.4568  -7.4568  -7.1531  -7.1531  -7.1004  -7.1003
    -6.7866  -6.7865  -6.7399  -6.7399  -6.3587  -6.3587  -6.3346  -6.3346
    -6.1499  -6.1498  -6.0749  -6.0748  -5.9053  -5.9053  -5.8750  -5.8750
    -5.7854  -5.7852  -5.5927  -5.5925  -5.5451  -5.5451  -5.5099  -5.5099
    -5.1736  -5.1736  -5.1113  -5.1112  -5.0301  -5.0301  -4.9410  -4.9410
    -4.7840  -4.7840  -4.7265  -4.7265  -4.6110  -4.6110  -4.5896  -4.5895
    -4.5064  -4.5064  -4.4589  -4.4588  -4.4106  -4.4106  -4.3656  -4.3655
    -4.2524  -4.2524  -4.2076  -4.2076  -4.1701  -4.1701  -4.1267  -4.1267
    -3.9891  -3.9890  -3.9497  -3.9496  -3.8762  -3.8762  -3.8180  -3.8180
    -3.6578  -3.6578  -3.6063  -3.6063  -3.5635  -3.5635  -3.4851  -3.4851
    -3.3707  -3.3706  -3.3043  -3.3042  -3.2622  -3.2622  -3.2389  -3.2388
    -3.1471  -3.1471  -3.1361  -3.1361  -3.0258  -3.0258  -2.9259  -2.9259
    -2.9058  -2.9058  -2.8210  -2.8210  -2.8058  -2.8058  -2.7118  -2.7118
    -2.2002  -2.2002  -2.1921  -2.1920  -2.0897  -2.0896  -2.0764  -2.0763
    -1.9972  -1.9971  -1.9411  -1.9411  -1.9077  -1.9076  -1.8395  -1.8394
    -0.6967  -0.6967  -0.5876  -0.5875  -0.5708  -0.5707  -0.5216  -0.5215
    -0.3191  -0.3190  -0.3066  -0.3066  -0.1449  -0.1449  -0.1119  -0.1119
     0.3847   0.3847   0.4031   0.4031   1.0638   1.0640   1.0916   1.0917

          k = 0.0000-0.2912 0.0000 ( 29152 PWs)   bands (ev):

   -20.5369 -20.5369 -20.5355 -20.5354 -19.4484 -19.4483 -19.4467 -19.4467
   -18.1795 -18.1791 -18.1563 -18.1559 -15.4354 -15.4354 -15.3987 -15.3987
   -15.3770 -15.3769 -15.3465 -15.3464 -13.9666 -13.9665 -13.9239 -13.9239
   -13.4632 -13.4632 -13.4333 -13.4333 -12.8120 -12.8119 -12.7859 -12.7858
   -12.5131 -12.5130 -12.4877 -12.4875 -12.3617 -12.3617 -12.3206 -12.3206
   -12.0135 -12.0134 -11.9772 -11.9771 -11.5255 -11.5254 -11.5204 -11.5203
   -10.8257 -10.8256 -10.8121 -10.8119  -9.5696  -9.5696  -9.5397  -9.5397
    -9.2303  -9.2303  -9.1477  -9.1477  -9.1294  -9.1293  -9.0418  -9.0417
    -8.8495  -8.8494  -8.8083  -8.8083  -8.3042  -8.3041  -8.2129  -8.2128
    -7.5293  -7.5292  -7.4608  -7.4607  -7.1705  -7.1704  -7.0936  -7.0935
    -6.7744  -6.7744  -6.7537  -6.7537  -6.3636  -6.3636  -6.3411  -6.3410
    -6.1256  -6.1255  -6.0826  -6.0825  -5.9421  -5.9420  -5.8402  -5.8401
    -5.8033  -5.8031  -5.5944  -5.5942  -5.5687  -5.5687  -5.5115  -5.5114
    -5.1518  -5.1518  -5.1186  -5.1185  -5.0326  -5.0326  -4.9236  -4.9235
    -4.8090  -4.8089  -4.7272  -4.7272  -4.6515  -4.6515  -4.5301  -4.5301
    -4.4952  -4.4951  -4.4754  -4.4753  -4.4169  -4.4168  -4.3070  -4.3069
    -4.3057  -4.3056  -4.2020  -4.2020  -4.1562  -4.1562  -4.1337  -4.1336
    -3.9962  -3.9960  -3.9597  -3.9596  -3.8589  -3.8588  -3.8046  -3.8045
    -3.6646  -3.6645  -3.6398  -3.6397  -3.5690  -3.5690  -3.4286  -3.4286
    -3.3599  -3.3599  -3.2803  -3.2803  -3.2747  -3.2746  -3.1910  -3.1910
    -3.1644  -3.1644  -3.1091  -3.1091  -2.9942  -2.9941  -2.9321  -2.9320
    -2.8953  -2.8952  -2.8377  -2.8377  -2.7957  -2.7957  -2.7633  -2.7632
    -2.3412  -2.3412  -2.1372  -2.1372  -2.1111  -2.1111  -2.0651  -2.0651
    -2.0375  -2.0374  -1.9443  -1.9442  -1.8913  -1.8913  -1.8580  -1.8579
    -0.6449  -0.6449  -0.5963  -0.5962  -0.5639  -0.5639  -0.4722  -0.4722
    -0.3132  -0.3131  -0.2774  -0.2774  -0.1501  -0.1500  -0.1164  -0.1164
     0.2859   0.2860   0.3220   0.3220   1.1724   1.1725   1.1910   1.1911

          k = 0.0000-0.2912 0.2118 ( 29106 PWs)   bands (ev):

   -20.5367 -20.5367 -20.5357 -20.5356 -19.4482 -19.4481 -19.4469 -19.4468
   -18.1795 -18.1791 -18.1563 -18.1559 -15.4333 -15.4332 -15.4082 -15.4081
   -15.3699 -15.3698 -15.3463 -15.3462 -13.9531 -13.9531 -13.9280 -13.9280
   -13.4630 -13.4629 -13.4536 -13.4535 -12.8095 -12.8094 -12.7860 -12.7859
   -12.5087 -12.5086 -12.4785 -12.4784 -12.3582 -12.3582 -12.3277 -12.3277
   -12.0127 -12.0125 -11.9792 -11.9791 -11.5400 -11.5400 -11.4974 -11.4974
   -10.8429 -10.8428 -10.8031 -10.8031  -9.5694  -9.5693  -9.5518  -9.5517
    -9.2232  -9.2232  -9.1545  -9.1545  -9.1192  -9.1192  -9.0408  -9.0407
    -8.8442  -8.8441  -8.8101  -8.8100  -8.3115  -8.3114  -8.2117  -8.2116
    -7.5367  -7.5367  -7.4608  -7.4608  -7.1608  -7.1608  -7.0980  -7.0979
    -6.7706  -6.7705  -6.7573  -6.7572  -6.3630  -6.3630  -6.3347  -6.3347
    -6.1351  -6.1350  -6.0786  -6.0785  -5.9263  -5.9262  -5.8490  -5.8490
    -5.7943  -5.7941  -5.5972  -5.5970  -5.5614  -5.5614  -5.5069  -5.5069
    -5.1530  -5.1530  -5.1326  -5.1326  -5.0335  -5.0335  -4.9512  -4.9512
    -4.7880  -4.7880  -4.7304  -4.7304  -4.6161  -4.6161  -4.5810  -4.5810
    -4.4806  -4.4805  -4.4426  -4.4425  -4.3958  -4.3958  -4.3444  -4.3443
    -4.2842  -4.2842  -4.2333  -4.2332  -4.1458  -4.1458  -4.1328  -4.1327
    -3.9955  -3.9954  -3.9572  -3.9571  -3.8788  -3.8787  -3.8092  -3.8092
    -3.6755  -3.6754  -3.6009  -3.6009  -3.5883  -3.5882  -3.4503  -3.4502
    -3.3573  -3.3572  -3.2930  -3.2930  -3.2526  -3.2526  -3.2318  -3.2317
    -3.1492  -3.1491  -3.1243  -3.1243  -3.0027  -3.0027  -2.9212  -2.9212
    -2.8864  -2.8864  -2.8525  -2.8525  -2.7882  -2.7882  -2.7569  -2.7569
    -2.2971  -2.2971  -2.1232  -2.1232  -2.1056  -2.1056  -2.0703  -2.0703
    -2.0301  -2.0301  -1.9245  -1.9244  -1.9070  -1.9070  -1.8556  -1.8555
    -0.6707  -0.6706  -0.6018  -0.6017  -0.5578  -0.5577  -0.4916  -0.4915
    -0.3319  -0.3318  -0.2817  -0.2817  -0.1467  -0.1467  -0.1149  -0.1148
     0.3340   0.3341   0.3608   0.3609   1.1215   1.1217   1.1411   1.1412

          k = 0.0000-0.2912-0.4237 ( 29056 PWs)   bands (ev):

   -20.5362 -20.5362 -20.5361 -20.5361 -19.4480 -19.4479 -19.4472 -19.4471
   -18.1795 -18.1790 -18.1563 -18.1558 -15.4257 -15.4255 -15.4219 -15.4218
   -15.3627 -15.3626 -15.3476 -15.3474 -13.9372 -13.9371 -13.9336 -13.9335
   -13.4705 -13.4703 -13.4670 -13.4669 -12.8072 -12.8071 -12.7857 -12.7856
   -12.4922 -12.4920 -12.4833 -12.4831 -12.3472 -12.3471 -12.3418 -12.3417
   -12.0105 -12.0104 -11.9820 -11.9819 -11.5157 -11.5155 -11.5137 -11.5135
   -10.8334 -10.8332 -10.8219 -10.8217  -9.5681  -9.5679  -9.5591  -9.5589
    -9.1834  -9.1833  -9.1801  -9.1801  -9.0946  -9.0945  -9.0796  -9.0796
    -8.8396  -8.8395  -8.8099  -8.8099  -8.3158  -8.3157  -8.2067  -8.2066
    -7.5429  -7.5428  -7.4618  -7.4618  -7.1490  -7.1490  -7.1049  -7.1049
    -6.7682  -6.7681  -6.7574  -6.7573  -6.3565  -6.3565  -6.3358  -6.3357
    -6.1408  -6.1407  -6.0834  -6.0833  -5.8915  -5.8914  -5.8831  -5.8830
    -5.7864  -5.7862  -5.5967  -5.5966  -5.5382  -5.5381  -5.5238  -5.5237
    -5.1488  -5.1487  -5.1228  -5.1227  -5.0233  -5.0232  -4.9633  -4.9632
    -4.7764  -4.7763  -4.7487  -4.7486  -4.5891  -4.5891  -4.5818  -4.5818
    -4.4901  -4.4900  -4.4820  -4.4818  -4.4020  -4.4019  -4.3939  -4.3939
    -4.2402  -4.2401  -4.2077  -4.2076  -4.1434  -4.1434  -4.1361  -4.1361
    -4.0031  -4.0030  -3.9453  -3.9451  -3.8669  -3.8669  -3.8185  -3.8185
    -3.6596  -3.6596  -3.6299  -3.6298  -3.5350  -3.5349  -3.4982  -3.4982
    -3.4009  -3.4009  -3.2651  -3.2651  -3.2530  -3.2530  -3.2392  -3.2391
    -3.1983  -3.1983  -3.1195  -3.1195  -3.0026  -3.0026  -2.9100  -2.9100
    -2.8812  -2.8812  -2.8563  -2.8562  -2.7808  -2.7808  -2.7526  -2.7526
    -2.1946  -2.1945  -2.1869  -2.1869  -2.1078  -2.1078  -2.0673  -2.0673
    -1.9937  -1.9937  -1.9403  -1.9402  -1.9073  -1.9072  -1.8421  -1.8420
    -0.6965  -0.6964  -0.6093  -0.6092  -0.5444  -0.5442  -0.5220  -0.5220
    -0.3298  -0.3297  -0.3009  -0.3008  -0.1378  -0.1378  -0.1181  -0.1180
     0.3916   0.3917   0.3958   0.3959   1.0648   1.0650   1.0907   1.0909

          k = 0.2500 0.0000 0.1466 ( 29098 PWs)   bands (ev):

   -20.5370 -20.5367 -20.5355 -20.5353 -19.4486 -19.4478 -19.4472 -19.4464
   -18.1796 -18.1789 -18.1564 -18.1557 -15.4380 -15.4226 -15.4075 -15.3998
   -15.3816 -15.3615 -15.3571 -15.3479 -13.9559 -13.9495 -13.9322 -13.9236
   -13.4733 -13.4697 -13.4475 -13.4425 -12.8179 -12.8007 -12.7934 -12.7784
   -12.5094 -12.5036 -12.4863 -12.4755 -12.3650 -12.3612 -12.3236 -12.3199
   -12.0207 -11.9975 -11.9953 -11.9713 -11.5551 -11.5389 -11.4979 -11.4805
   -10.8404 -10.8240 -10.8190 -10.8108  -9.6122  -9.5719  -9.5476  -9.5096
    -9.2395  -9.2327  -9.1621  -9.1385  -9.1332  -9.1155  -9.0459  -9.0185
    -8.8673  -8.8238  -8.8094  -8.8023  -8.3061  -8.2990  -8.2386  -8.1932
    -7.5307  -7.5274  -7.4801  -7.4498  -7.1999  -7.1280  -7.1056  -7.0715
    -6.7874  -6.7862  -6.7482  -6.7451  -6.3827  -6.3549  -6.3468  -6.3244
    -6.1276  -6.1231  -6.1113  -6.0705  -5.9435  -5.9332  -5.8463  -5.8380
    -5.7966  -5.7896  -5.6014  -5.5876  -5.5454  -5.5437  -5.5267  -5.4880
    -5.1855  -5.1368  -5.1297  -5.1144  -5.0794  -5.0013  -4.9703  -4.9175
    -4.8099  -4.7509  -4.7466  -4.7364  -4.7120  -4.6194  -4.5595  -4.5457
    -4.5023  -4.4709  -4.4687  -4.4354  -4.3918  -4.3665  -4.3534  -4.3400
    -4.2799  -4.2559  -4.2507  -4.2236  -4.1838  -4.1563  -4.1458  -4.1069
    -3.9998  -3.9988  -3.9743  -3.9488  -3.8659  -3.8604  -3.8209  -3.7907
    -3.7059  -3.6282  -3.6170  -3.6110  -3.5741  -3.5562  -3.4554  -3.4306
    -3.3464  -3.3195  -3.3159  -3.2771  -3.2644  -3.2564  -3.2289  -3.2191
    -3.2032  -3.1460  -3.1365  -3.1279  -3.0259  -3.0218  -2.9317  -2.9180
    -2.8908  -2.8908  -2.8531  -2.8330  -2.8223  -2.8093  -2.7240  -2.7174
    -2.3634  -2.3134  -2.1414  -2.1146  -2.1044  -2.0880  -2.0634  -2.0527
    -2.0242  -2.0030  -1.9753  -1.9217  -1.8997  -1.8706  -1.8567  -1.8433
    -0.6832  -0.6338  -0.6132  -0.6081  -0.5696  -0.5274  -0.5047  -0.4358
    -0.3459  -0.3250  -0.3133  -0.2599  -0.1759  -0.1390  -0.1276  -0.0944
     0.3337   0.3379   0.3458   0.3550   1.0972   1.1177   1.1491   1.1603

          k = 0.2500 0.0000 0.3584 ( 29106 PWs)   bands (ev):

   -20.5367 -20.5366 -20.5357 -20.5356 -19.4484 -19.4476 -19.4475 -19.4467
   -18.1796 -18.1790 -18.1564 -18.1558 -15.4331 -15.4197 -15.4154 -15.4132
   -15.3720 -15.3599 -15.3518 -15.3509 -13.9401 -13.9345 -13.9339 -13.9315
   -13.4948 -13.4700 -13.4641 -13.4459 -12.8136 -12.8029 -12.7891 -12.7799
   -12.5018 -12.4922 -12.4872 -12.4686 -12.3612 -12.3563 -12.3319 -12.3267
   -12.0204 -12.0002 -11.9908 -11.9753 -11.5555 -11.5293 -11.4933 -11.4784
   -10.8482 -10.8388 -10.8150 -10.8077  -9.6346  -9.5711  -9.5559  -9.4966
    -9.2251  -9.2189  -9.1772  -9.1340  -9.1322  -9.1091  -9.0471  -9.0317
    -8.8451  -8.8356  -8.8094  -8.8067  -8.3150  -8.3054  -8.2242  -8.1974
    -7.5433  -7.5355  -7.4729  -7.4481  -7.1933  -7.1193  -7.1059  -7.0800
    -6.7967  -6.7824  -6.7467  -6.7355  -6.3787  -6.3608  -6.3474  -6.3121
    -6.1512  -6.1340  -6.1034  -6.0569  -5.9366  -5.9035  -5.8642  -5.8495
    -5.7856  -5.7842  -5.5967  -5.5863  -5.5475  -5.5376  -5.5207  -5.4863
    -5.1843  -5.1515  -5.1448  -5.0993  -5.0759  -4.9940  -4.9868  -4.9334
    -4.7885  -4.7795  -4.7674  -4.7045  -4.6725  -4.5812  -4.5699  -4.5536
    -4.5112  -4.4571  -4.4535  -4.4364  -4.4336  -4.4285  -4.3943  -4.3255
    -4.2880  -4.2502  -4.2377  -4.1901  -4.1564  -4.1538  -4.1333  -4.1175
    -4.0016  -3.9963  -3.9736  -3.9580  -3.8915  -3.8416  -3.8239  -3.7981
    -3.6933  -3.6299  -3.6032  -3.6022  -3.5562  -3.5405  -3.5089  -3.4158
    -3.4033  -3.3899  -3.2986  -3.2742  -3.2644  -3.2563  -3.2346  -3.2137
    -3.2027  -3.1879  -3.1340  -3.1186  -3.0451  -3.0050  -2.9474  -2.9362
    -2.8917  -2.8880  -2.8387  -2.8278  -2.8063  -2.7863  -2.7300  -2.7114
    -2.3011  -2.2813  -2.1418  -2.1029  -2.0990  -2.0859  -2.0641  -2.0447
    -2.0198  -1.9753  -1.9719  -1.9326  -1.9290  -1.8703  -1.8339  -1.8309
    -0.7057  -0.6750  -0.6112  -0.5928  -0.5664  -0.5342  -0.5178  -0.4901
    -0.3586  -0.3507  -0.2834  -0.2744  -0.1709  -0.1304  -0.1253  -0.0991
     0.3737   0.3897   0.3975   0.3991   1.0421   1.0660   1.0910   1.1113

          k = 0.2500 0.0000-0.2771 ( 29118 PWs)   bands (ev):

   -20.5363 -20.5362 -20.5361 -20.5360 -19.4480 -19.4478 -19.4472 -19.4471
   -18.1795 -18.1791 -18.1563 -18.1559 -15.4268 -15.4208 -15.4162 -15.4112
   -15.3759 -15.3628 -15.3555 -15.3468 -13.9505 -13.9404 -13.9372 -13.9322
   -13.4811 -13.4617 -13.4521 -13.4388 -12.8100 -12.8098 -12.7870 -12.7842
   -12.5084 -12.5016 -12.4874 -12.4761 -12.3463 -12.3443 -12.3410 -12.3401
   -12.0114 -12.0087 -11.9836 -11.9804 -11.5823 -11.5293 -11.5123 -11.4484
   -10.8461 -10.8374 -10.8142 -10.7969  -9.6026  -9.5800  -9.5314  -9.5224
    -9.1960  -9.1842  -9.1781  -9.1693  -9.0981  -9.0967  -9.0906  -9.0784
    -8.8519  -8.8347  -8.8139  -8.7967  -8.3187  -8.3164  -8.2128  -8.2034
    -7.5443  -7.5384  -7.4672  -7.4486  -7.1628  -7.1446  -7.1078  -7.1013
    -6.7859  -6.7819  -6.7514  -6.7429  -6.3666  -6.3453  -6.3367  -6.3332
    -6.1572  -6.1052  -6.0900  -6.0732  -5.9079  -5.9040  -5.8761  -5.8616
    -5.7878  -5.7874  -5.5887  -5.5827  -5.5734  -5.5464  -5.5195  -5.4901
    -5.1809  -5.1523  -5.1313  -5.1057  -5.0432  -5.0387  -4.9825  -4.9135
    -4.8048  -4.7820  -4.7374  -4.6701  -4.6207  -4.6149  -4.5946  -4.5633
    -4.5002  -4.4907  -4.4822  -4.4497  -4.4282  -4.4216  -4.3649  -4.3194
    -4.3032  -4.2529  -4.2262  -4.1885  -4.1679  -4.1647  -4.1488  -4.1208
    -3.9964  -3.9733  -3.9708  -3.9380  -3.8734  -3.8560  -3.8475  -3.8210
    -3.7122  -3.6512  -3.6309  -3.6118  -3.5767  -3.5476  -3.4855  -3.4544
    -3.3651  -3.3466  -3.3077  -3.2775  -3.2484  -3.2459  -3.2311  -3.2167
    -3.1693  -3.1417  -3.1179  -3.1027  -3.0494  -2.9851  -2.9815  -2.9385
    -2.8849  -2.8710  -2.8540  -2.8416  -2.8024  -2.7908  -2.7323  -2.7153
    -2.2010  -2.1973  -2.1668  -2.1565  -2.1102  -2.1059  -2.0880  -2.0824
    -2.0119  -1.9947  -1.9725  -1.9620  -1.9342  -1.8881  -1.8667  -1.8454
    -0.6692  -0.6618  -0.5843  -0.5821  -0.5708  -0.5616  -0.5021  -0.4795
    -0.3759  -0.3278  -0.3009  -0.2446  -0.1640  -0.1405  -0.1189  -0.1170
     0.3314   0.3565   0.3587   0.3755   1.1014   1.1174   1.1310   1.1486

          k = 0.2500 0.0000-0.0653 ( 29126 PWs)   bands (ev):

   -20.5369 -20.5365 -20.5358 -20.5355 -19.4485 -19.4476 -19.4474 -19.4466
   -18.1796 -18.1790 -18.1563 -18.1558 -15.4341 -15.4221 -15.4025 -15.4019
   -15.3848 -15.3637 -15.3611 -15.3457 -13.9638 -13.9563 -13.9359 -13.9240
   -13.4752 -13.4511 -13.4418 -13.4244 -12.8173 -12.8046 -12.7935 -12.7805
   -12.5100 -12.5097 -12.4930 -12.4877 -12.3579 -12.3539 -12.3283 -12.3254
   -12.0155 -12.0023 -11.9913 -11.9732 -11.5548 -11.5515 -11.4967 -11.4876
   -10.8266 -10.8259 -10.8177 -10.8041  -9.5952  -9.5739  -9.5355  -9.5138
    -9.2188  -9.2107  -9.1617  -9.1556  -9.1244  -9.1081  -9.0712  -9.0518
    -8.8711  -8.8272  -8.8079  -8.7998  -8.3121  -8.3092  -8.2299  -8.1950
    -7.5364  -7.5281  -7.4679  -7.4542  -7.1802  -7.1323  -7.1231  -7.0880
    -6.7806  -6.7733  -6.7660  -6.7457  -6.3637  -6.3594  -6.3433  -6.3274
    -6.1304  -6.1158  -6.0807  -6.0788  -5.9326  -5.9197  -5.8717  -5.8450
    -5.7959  -5.7898  -5.5915  -5.5910  -5.5672  -5.5467  -5.5258  -5.4932
    -5.1730  -5.1638  -5.1336  -5.1022  -5.0728  -4.9938  -4.9699  -4.9209
    -4.8172  -4.7683  -4.7096  -4.6981  -4.6751  -4.6170  -4.5784  -4.5141
    -4.5107  -4.5087  -4.4688  -4.4606  -4.4087  -4.3894  -4.3479  -4.3286
    -4.2922  -4.2819  -4.2159  -4.2146  -4.1738  -4.1624  -4.1471  -4.1408
    -3.9942  -3.9935  -3.9638  -3.9297  -3.8961  -3.8374  -3.8176  -3.8134
    -3.7114  -3.6884  -3.6397  -3.6154  -3.5594  -3.5477  -3.4623  -3.4423
    -3.3780  -3.3246  -3.2873  -3.2720  -3.2331  -3.2218  -3.2121  -3.1991
    -3.1560  -3.1519  -3.1352  -3.1165  -3.0206  -3.0030  -2.9371  -2.9234
    -2.9086  -2.8768  -2.8633  -2.8526  -2.8113  -2.8049  -2.7353  -2.7175
    -2.3104  -2.2575  -2.1494  -2.1276  -2.1245  -2.0916  -2.0874  -2.0667
    -2.0266  -2.0043  -1.9866  -1.9802  -1.9065  -1.8921  -1.8711  -1.8520
    -0.6362  -0.6278  -0.6010  -0.5982  -0.5829  -0.5326  -0.4899  -0.4222
    -0.3750  -0.3229  -0.2751  -0.2584  -0.1598  -0.1478  -0.1327  -0.1083
     0.2910   0.3106   0.3155   0.3277   1.1629   1.1721   1.1779   1.1885

          k = 0.2500-0.2912 0.1466 ( 29126 PWs)   bands (ev):

   -20.5369 -20.5368 -20.5355 -20.5354 -19.4484 -19.4483 -19.4468 -19.4467
   -18.1795 -18.1791 -18.1563 -18.1559 -15.4317 -15.4317 -15.4029 -15.4028
   -15.3728 -15.3727 -15.3507 -15.3507 -13.9528 -13.9528 -13.9279 -13.9279
   -13.4614 -13.4614 -13.4551 -13.4550 -12.8113 -12.8112 -12.7841 -12.7839
   -12.5073 -12.5071 -12.4804 -12.4803 -12.3631 -12.3631 -12.3217 -12.3217
   -12.0149 -12.0148 -11.9777 -11.9775 -11.5277 -11.5276 -11.5091 -11.5091
   -10.8339 -10.8338 -10.8130 -10.8129  -9.5804  -9.5804  -9.5403  -9.5403
    -9.2359  -9.2359  -9.1547  -9.1547  -9.1207  -9.1206  -9.0319  -9.0319
    -8.8442  -8.8441  -8.8076  -8.8075  -8.3032  -8.3031  -8.2152  -8.2151
    -7.5287  -7.5286  -7.4643  -7.4642  -7.1697  -7.1697  -7.0857  -7.0856
    -6.7678  -6.7677  -6.7641  -6.7641  -6.3672  -6.3671  -6.3378  -6.3377
    -6.1243  -6.1242  -6.0900  -6.0899  -5.9407  -5.9407  -5.8356  -5.8356
    -5.7944  -5.7942  -5.5963  -5.5961  -5.5533  -5.5533  -5.5031  -5.5031
    -5.1617  -5.1617  -5.1269  -5.1269  -5.0410  -5.0410  -4.9373  -4.9373
    -4.7760  -4.7760  -4.7557  -4.7557  -4.6571  -4.6571  -4.5502  -4.5501
    -4.4909  -4.4908  -4.4335  -4.4335  -4.3850  -4.3850  -4.3590  -4.3590
    -4.2670  -4.2670  -4.2361  -4.2360  -4.1776  -4.1775  -4.1150  -4.1150
    -3.9942  -3.9941  -3.9739  -3.9738  -3.8635  -3.8635  -3.7994  -3.7994
    -3.6678  -3.6677  -3.6133  -3.6132  -3.5797  -3.5796  -3.4256  -3.4255
    -3.3615  -3.3615  -3.2864  -3.2864  -3.2689  -3.2688  -3.2128  -3.2128
    -3.1701  -3.1701  -3.1308  -3.1308  -3.0014  -3.0014  -2.9209  -2.9208
    -2.8881  -2.8881  -2.8545  -2.8544  -2.7982  -2.7982  -2.7550  -2.7549
    -2.3360  -2.3360  -2.1248  -2.1248  -2.0989  -2.0989  -2.0409  -2.0409
    -2.0285  -2.0285  -1.9526  -1.9525  -1.8836  -1.8836  -1.8482  -1.8481
    -0.6665  -0.6664  -0.6124  -0.6123  -0.5363  -0.5362  -0.4757  -0.4756
    -0.3368  -0.3368  -0.2836  -0.2836  -0.1584  -0.1583  -0.1089  -0.1089
     0.3390   0.3391   0.3473   0.3474   1.1067   1.1068   1.1553   1.1553

          k = 0.2500-0.2912 0.3584 ( 29080 PWs)   bands (ev):

   -20.5367 -20.5366 -20.5357 -20.5356 -19.4482 -19.4481 -19.4470 -19.4469
   -18.1795 -18.1791 -18.1563 -18.1559 -15.4280 -15.4279 -15.4130 -15.4130
   -15.3661 -15.3659 -15.3511 -15.3510 -13.9377 -13.9377 -13.9324 -13.9324
   -13.4827 -13.4826 -13.4547 -13.4547 -12.8090 -12.8089 -12.7839 -12.7838
   -12.4993 -12.4992 -12.4758 -12.4757 -12.3590 -12.3589 -12.3292 -12.3292
   -12.0137 -12.0135 -11.9798 -11.9797 -11.5250 -11.5250 -11.5035 -11.5035
   -10.8446 -10.8445 -10.8103 -10.8103  -9.6031  -9.6031  -9.5252  -9.5252
    -9.2220  -9.2220  -9.1642  -9.1641  -9.1112  -9.1111  -9.0409  -9.0409
    -8.8399  -8.8398  -8.8088  -8.8087  -8.3095  -8.3094  -8.2115  -8.2114
    -7.5364  -7.5364  -7.4642  -7.4641  -7.1607  -7.1606  -7.0894  -7.0894
    -6.7719  -6.7719  -6.7580  -6.7579  -6.3723  -6.3723  -6.3262  -6.3262
    -6.1371  -6.1370  -6.0857  -6.0856  -5.9212  -5.9212  -5.8509  -5.8509
    -5.7872  -5.7870  -5.5938  -5.5936  -5.5353  -5.5353  -5.5175  -5.5175
    -5.1495  -5.1494  -5.1393  -5.1393  -5.0343  -5.0343  -4.9580  -4.9579
    -4.7928  -4.7928  -4.7295  -4.7295  -4.6221  -4.6221  -4.5507  -4.5507
    -4.4873  -4.4872  -4.4605  -4.4604  -4.4261  -4.4261  -4.3675  -4.3675
    -4.2642  -4.2642  -4.2049  -4.2048  -4.1649  -4.1649  -4.1216  -4.1216
    -4.0040  -4.0039  -3.9614  -3.9613  -3.8643  -3.8643  -3.8013  -3.8013
    -3.6706  -3.6705  -3.6145  -3.6145  -3.5582  -3.5581  -3.4671  -3.4670
    -3.3663  -3.3663  -3.3008  -3.3007  -3.2642  -3.2642  -3.2410  -3.2409
    -3.1648  -3.1647  -3.1375  -3.1375  -3.0022  -3.0021  -2.9129  -2.9128
    -2.8956  -2.8955  -2.8463  -2.8463  -2.7939  -2.7939  -2.7484  -2.7484
    -2.2894  -2.2894  -2.1141  -2.1141  -2.0870  -2.0870  -2.0693  -2.0693
    -2.0041  -2.0041  -1.9445  -1.9444  -1.8968  -1.8967  -1.8334  -1.8333
    -0.6896  -0.6896  -0.6203  -0.6201  -0.5255  -0.5254  -0.5056  -0.5056
    -0.3621  -0.3620  -0.2778  -0.2777  -0.1521  -0.1521  -0.1100  -0.1100
     0.3856   0.3856   0.3945   0.3945   1.0519   1.0519   1.1033   1.1034

          k = 0.2500-0.2912-0.2771 ( 29106 PWs)   bands (ev):

   -20.5363 -20.5363 -20.5361 -20.5360 -19.4480 -19.4479 -19.4472 -19.4471
   -18.1795 -18.1791 -18.1563 -18.1559 -15.4241 -15.4241 -15.4136 -15.4135
   -15.3706 -15.3705 -15.3499 -15.3498 -13.9457 -13.9457 -13.9346 -13.9346
   -13.4668 -13.4667 -13.4500 -13.4500 -12.8099 -12.8098 -12.7857 -12.7855
   -12.5057 -12.5056 -12.4811 -12.4810 -12.3452 -12.3452 -12.3409 -12.3409
   -12.0100 -12.0098 -11.9821 -11.9820 -11.5565 -11.5565 -11.4803 -11.4803
   -10.8423 -10.8423 -10.8047 -10.8046  -9.5679  -9.5678  -9.5509  -9.5508
    -9.1896  -9.1896  -9.1738  -9.1738  -9.0993  -9.0992  -9.0815  -9.0815
    -8.8425  -8.8424  -8.8074  -8.8074  -8.3176  -8.3175  -8.2077  -8.2076
    -7.5403  -7.5402  -7.4589  -7.4588  -7.1527  -7.1527  -7.1068  -7.1067
    -6.7748  -6.7747  -6.7555  -6.7554  -6.3555  -6.3554  -6.3348  -6.3348
    -6.1367  -6.1366  -6.0749  -6.0748  -5.8939  -5.8938  -5.8797  -5.8797
    -5.7862  -5.7860  -5.5918  -5.5917  -5.5602  -5.5602  -5.5111  -5.5111
    -5.1550  -5.1550  -5.1216  -5.1216  -5.0352  -5.0352  -4.9554  -4.9553
    -4.7924  -4.7923  -4.7012  -4.7012  -4.6072  -4.6071  -4.5839  -4.5839
    -4.4992  -4.4992  -4.4665  -4.4665  -4.4260  -4.4259  -4.3678  -4.3677
    -4.2540  -4.2539  -4.2083  -4.2082  -4.1807  -4.1807  -4.1202  -4.1202
    -3.9955  -3.9954  -3.9367  -3.9366  -3.8794  -3.8793  -3.8220  -3.8220
    -3.6821  -3.6821  -3.6308  -3.6307  -3.5606  -3.5606  -3.4753  -3.4753
    -3.3841  -3.3841  -3.2612  -3.2612  -3.2458  -3.2458  -3.2098  -3.2098
    -3.1774  -3.1774  -3.1113  -3.1113  -3.0078  -3.0078  -2.9158  -2.9157
    -2.8947  -2.8947  -2.8377  -2.8377  -2.7999  -2.7999  -2.7580  -2.7580
    -2.1870  -2.1869  -2.1697  -2.1697  -2.1040  -2.1039  -2.0879  -2.0879
    -2.0149  -2.0148  -1.9441  -1.9440  -1.9271  -1.9270  -1.8539  -1.8538
    -0.6622  -0.6621  -0.6065  -0.6064  -0.5446  -0.5445  -0.4915  -0.4914
    -0.3577  -0.3577  -0.2690  -0.2690  -0.1448  -0.1448  -0.1239  -0.1239
     0.3424   0.3425   0.3683   0.3684   1.1076   1.1077   1.1416   1.1417

          k = 0.2500-0.2912-0.0653 ( 29134 PWs)   bands (ev):

   -20.5367 -20.5367 -20.5357 -20.5356 -19.4482 -19.4482 -19.4469 -19.4468
   -18.1795 -18.1791 -18.1563 -18.1559 -15.4290 -15.4289 -15.4016 -15.4016
   -15.3772 -15.3771 -15.3504 -15.3503 -13.9602 -13.9602 -13.9300 -13.9300
   -13.4587 -13.4587 -13.4375 -13.4375 -12.8123 -12.8122 -12.7858 -12.7857
   -12.5095 -12.5093 -12.4910 -12.4908 -12.3560 -12.3560 -12.3267 -12.3267
   -12.0116 -12.0115 -11.9796 -11.9795 -11.5258 -11.5257 -11.5205 -11.5204
   -10.8242 -10.8240 -10.8122 -10.8121  -9.5658  -9.5657  -9.5443  -9.5443
    -9.2145  -9.2145  -9.1567  -9.1567  -9.1206  -9.1206  -9.0575  -9.0574
    -8.8480  -8.8479  -8.8067  -8.8066  -8.3116  -8.3115  -8.2112  -8.2111
    -7.5326  -7.5325  -7.4588  -7.4587  -7.1638  -7.1637  -7.1013  -7.1013
    -6.7764  -6.7763  -6.7547  -6.7546  -6.3586  -6.3585  -6.3384  -6.3384
    -6.1226  -6.1225  -6.0807  -6.0806  -5.9256  -5.9255  -5.8527  -5.8527
    -5.7946  -5.7944  -5.5881  -5.5879  -5.5642  -5.5641  -5.5175  -5.5174
    -5.1521  -5.1520  -5.1273  -5.1273  -5.0333  -5.0333  -4.9440  -4.9439
    -4.7881  -4.7881  -4.7235  -4.7235  -4.6359  -4.6359  -4.5403  -4.5402
    -4.4966  -4.4965  -4.4759  -4.4757  -4.4045  -4.4044  -4.3518  -4.3517
    -4.2686  -4.2685  -4.2068  -4.2068  -4.1979  -4.1979  -4.1252  -4.1251
    -3.9903  -3.9902  -3.9514  -3.9513  -3.8657  -3.8657  -3.8275  -3.8275
    -3.6726  -3.6725  -3.6311  -3.6310  -3.5815  -3.5814  -3.4571  -3.4571
    -3.3231  -3.3231  -3.2817  -3.2816  -3.2413  -3.2413  -3.2204  -3.2204
    -3.1444  -3.1443  -3.1157  -3.1156  -3.0026  -3.0026  -2.9240  -2.9239
    -2.8907  -2.8907  -2.8382  -2.8382  -2.8103  -2.8103  -2.7636  -2.7636
    -2.2793  -2.2793  -2.1375  -2.1374  -2.1100  -2.1099  -2.0728  -2.0728
    -2.0345  -2.0344  -1.9562  -1.9562  -1.9099  -1.9099  -1.8628  -1.8627
    -0.6393  -0.6393  -0.5983  -0.5982  -0.5464  -0.5463  -0.4771  -0.4770
    -0.3185  -0.3184  -0.2827  -0.2827  -0.1483  -0.1482  -0.1247  -0.1246
     0.2990   0.2991   0.3231   0.3232   1.1677   1.1677   1.1829   1.1829

          k =-0.5000 0.0000-0.2931 ( 29122 PWs)   bands (ev):

   -20.5369 -20.5368 -20.5356 -20.5354 -19.4485 -19.4479 -19.4473 -19.4464
   -18.1796 -18.1790 -18.1564 -18.1557 -15.4329 -15.4192 -15.4112 -15.4029
   -15.3774 -15.3601 -15.3591 -15.3542 -13.9412 -13.9339 -13.9324 -13.9313
   -13.5008 -13.4754 -13.4571 -13.4414 -12.8172 -12.8009 -12.7897 -12.7775
   -12.5065 -12.4928 -12.4880 -12.4618 -12.3659 -12.3634 -12.3237 -12.3218
   -12.0235 -11.9962 -11.9957 -11.9730 -11.5595 -11.5228 -11.4969 -11.4758
   -10.8547 -10.8452 -10.8083 -10.8009  -9.6516  -9.5865  -9.5410  -9.4821
    -9.2428  -9.2418  -9.1752  -9.1418  -9.1212  -9.1204  -9.0180  -9.0141
    -8.8469  -8.8305  -8.8113  -8.8069  -8.3072  -8.2977  -8.2378  -8.1962
    -7.5387  -7.5207  -7.4870  -7.4458  -7.2085  -7.1275  -7.0857  -7.0676
    -6.8016  -6.7842  -6.7501  -6.7346  -6.3906  -6.3717  -6.3442  -6.3046
    -6.1441  -6.1213  -6.1211  -6.0548  -5.9456  -5.9191  -5.8588  -5.8185
    -5.7924  -5.7843  -5.5951  -5.5834  -5.5472  -5.5287  -5.5236  -5.4733
    -5.1986  -5.1661  -5.1231  -5.1117  -5.0668  -5.0358  -4.9785  -4.9416
    -4.7901  -4.7825  -4.7740  -4.7240  -4.6789  -4.5675  -4.5661  -4.5512
    -4.5053  -4.4667  -4.4519  -4.4465  -4.4244  -4.3857  -4.3744  -4.3450
    -4.2964  -4.2664  -4.2341  -4.1792  -4.1536  -4.1480  -4.1193  -4.1174
    -4.0116  -4.0076  -3.9977  -3.9633  -3.8974  -3.8157  -3.8064  -3.8062
    -3.7219  -3.6155  -3.5962  -3.5924  -3.5573  -3.5402  -3.4983  -3.4184
    -3.3555  -3.3454  -3.3138  -3.3086  -3.2573  -3.2545  -3.2526  -3.2387
    -3.2210  -3.1494  -3.1462  -3.1339  -3.0553  -2.9862  -2.9642  -2.9441
    -2.8888  -2.8628  -2.8540  -2.8466  -2.8065  -2.7595  -2.7499  -2.7192
    -2.3411  -2.3175  -2.1313  -2.1093  -2.0930  -2.0689  -2.0625  -2.0243
    -2.0240  -1.9764  -1.9568  -1.9439  -1.9333  -1.8403  -1.8324  -1.8268
    -0.7111  -0.6385  -0.6198  -0.6193  -0.5632  -0.5117  -0.5026  -0.4292
    -0.4177  -0.3762  -0.2624  -0.2616  -0.1842  -0.1440  -0.1181  -0.0935
     0.3653   0.3914   0.3936   0.3940   1.0354   1.0486   1.1125   1.1131

          k =-0.5000 0.0000-0.0813 ( 29151 PWs)   bands (ev):

   -20.5367 -20.5365 -20.5358 -20.5356 -19.4484 -19.4476 -19.4475 -19.4466
   -18.1796 -18.1790 -18.1564 -18.1558 -15.4265 -15.4162 -15.4119 -15.4078
   -15.3746 -15.3689 -15.3583 -15.3529 -13.9474 -13.9424 -13.9401 -13.9297
   -13.4794 -13.4630 -13.4520 -13.4392 -12.8170 -12.8046 -12.7888 -12.7802
   -12.5084 -12.4974 -12.4893 -12.4791 -12.3575 -12.3559 -12.3293 -12.3274
   -12.0183 -12.0005 -11.9908 -11.9758 -11.5771 -11.5237 -11.5161 -11.4542
   -10.8324 -10.8292 -10.8263 -10.8085  -9.6138  -9.5690  -9.5433  -9.5093
    -9.2178  -9.2095  -9.1723  -9.1425  -9.1298  -9.1123  -9.0677  -9.0488
    -8.8525  -8.8333  -8.8072  -8.8009  -8.3113  -8.3081  -8.2235  -8.1985
    -7.5371  -7.5316  -7.4773  -7.4440  -7.1937  -7.1227  -7.1100  -7.0825
    -6.7874  -6.7857  -6.7538  -6.7435  -6.3669  -6.3599  -6.3416  -6.3265
    -6.1480  -6.1052  -6.0967  -6.0753  -5.9303  -5.9062  -5.8754  -5.8412
    -5.7896  -5.7832  -5.5893  -5.5819  -5.5574  -5.5370  -5.5129  -5.5004
    -5.1694  -5.1486  -5.1407  -5.0987  -5.0982  -4.9816  -4.9691  -4.9565
    -4.7958  -4.7885  -4.7433  -4.7201  -4.6786  -4.5902  -4.5640  -4.5353
    -4.5182  -4.4870  -4.4689  -4.4499  -4.4297  -4.4223  -4.3647  -4.3422
    -4.2846  -4.2423  -4.2259  -4.1991  -4.1712  -4.1653  -4.1270  -4.1205
    -4.0052  -3.9922  -3.9580  -3.9513  -3.8778  -3.8683  -3.8119  -3.8056
    -3.6914  -3.6738  -3.6340  -3.5866  -3.5811  -3.5372  -3.4747  -3.4340
    -3.3978  -3.3368  -3.3008  -3.2621  -3.2443  -3.2347  -3.2184  -3.2098
    -3.2035  -3.1873  -3.1401  -3.1006  -3.0453  -3.0095  -2.9578  -2.9112
    -2.9006  -2.8675  -2.8497  -2.8465  -2.8114  -2.7874  -2.7400  -2.7241
    -2.2991  -2.2448  -2.1476  -2.1188  -2.1118  -2.0914  -2.0693  -2.0386
    -2.0311  -1.9924  -1.9719  -1.9450  -1.9382  -1.8875  -1.8514  -1.8451
    -0.6775  -0.6377  -0.6000  -0.5879  -0.5748  -0.5405  -0.4771  -0.4387
    -0.3913  -0.3389  -0.3065  -0.2407  -0.1807  -0.1392  -0.1298  -0.1020
     0.3341   0.3530   0.3535   0.3639   1.0894   1.1012   1.1500   1.1560

          k =-0.5000 0.0000-0.7168 ( 29132 PWs)   bands (ev):

   -20.5363 -20.5363 -20.5360 -20.5360 -19.4480 -19.4479 -19.4472 -19.4471
   -18.1795 -18.1791 -18.1563 -18.1559 -15.4158 -15.4157 -15.4121 -15.4121
   -15.3757 -15.3755 -15.3551 -15.3550 -13.9500 -13.9500 -13.9397 -13.9397
   -13.4627 -13.4627 -13.4333 -13.4332 -12.8128 -12.8127 -12.7856 -12.7855
   -12.5042 -12.5040 -12.4958 -12.4956 -12.3418 -12.3418 -12.3411 -12.3411
   -12.0095 -12.0093 -11.9824 -11.9823 -11.5533 -11.5533 -11.4924 -11.4924
   -10.8263 -10.8262 -10.8095 -10.8094  -9.5860  -9.5860  -9.5234  -9.5234
    -9.1880  -9.1880  -9.1768  -9.1767  -9.0994  -9.0993  -9.0887  -9.0886
    -8.8473  -8.8472  -8.8016  -8.8016  -8.3185  -8.3184  -8.2105  -8.2104
    -7.5389  -7.5388  -7.4552  -7.4552  -7.1560  -7.1560  -7.1079  -7.1079
    -6.7786  -6.7785  -6.7566  -6.7566  -6.3581  -6.3580  -6.3310  -6.3310
    -6.1190  -6.1189  -6.0790  -6.0789  -5.8935  -5.8934  -5.8851  -5.8850
    -5.7844  -5.7842  -5.5774  -5.5772  -5.5654  -5.5654  -5.5056  -5.5056
    -5.1842  -5.1842  -5.1096  -5.1095  -5.0524  -5.0524  -4.9559  -4.9559
    -4.7577  -4.7577  -4.7487  -4.7487  -4.6188  -4.6188  -4.5569  -4.5568
    -4.5046  -4.5045  -4.4445  -4.4444  -4.3894  -4.3894  -4.3753  -4.3752
    -4.2575  -4.2574  -4.2220  -4.2220  -4.1940  -4.1940  -4.1389  -4.1388
    -3.9845  -3.9843  -3.9585  -3.9584  -3.8690  -3.8689  -3.8343  -3.8343
    -3.7117  -3.7117  -3.6028  -3.6028  -3.5778  -3.5778  -3.4648  -3.4648
    -3.3272  -3.3272  -3.2644  -3.2644  -3.2396  -3.2396  -3.2193  -3.2193
    -3.1519  -3.1519  -3.1064  -3.1063  -3.0294  -3.0294  -2.9272  -2.9272
    -2.8954  -2.8953  -2.8515  -2.8514  -2.7996  -2.7996  -2.7371  -2.7371
    -2.1957  -2.1957  -2.1508  -2.1508  -2.1208  -2.1208  -2.0841  -2.0841
    -2.0333  -2.0332  -1.9545  -1.9544  -1.9404  -1.9403  -1.8666  -1.8666
    -0.6268  -0.6268  -0.5897  -0.5896  -0.5644  -0.5643  -0.4480  -0.4479
    -0.3599  -0.3599  -0.2679  -0.2678  -0.1574  -0.1574  -0.1222  -0.1222
     0.3117   0.3118   0.3251   0.3252   1.1645   1.1646   1.1726   1.1727

          k =-0.5000-0.2912-0.2931 ( 29152 PWs)   bands (ev):

   -20.5369 -20.5368 -20.5355 -20.5354 -19.4483 -19.4483 -19.4468 -19.4468
   -18.1795 -18.1791 -18.1563 -18.1559 -15.4278 -15.4278 -15.4056 -15.4055
   -15.3701 -15.3699 -15.3552 -15.3550 -13.9381 -13.9380 -13.9315 -13.9315
   -13.4884 -13.4884 -13.4490 -13.4490 -12.8105 -12.8104 -12.7823 -12.7822
   -12.5035 -12.5033 -12.4714 -12.4713 -12.3646 -12.3646 -12.3227 -12.3227
   -12.0164 -12.0162 -11.9780 -11.9779 -11.5291 -11.5290 -11.4988 -11.4988
   -10.8508 -10.8508 -10.8038 -10.8038  -9.6194  -9.6194  -9.5104  -9.5104
    -9.2423  -9.2423  -9.1640  -9.1639  -9.1136  -9.1135  -9.0196  -9.0195
    -8.8395  -8.8394  -8.8075  -8.8075  -8.3025  -8.3025  -8.2170  -8.2169
    -7.5294  -7.5293  -7.4671  -7.4671  -7.1689  -7.1688  -7.0773  -7.0772
    -6.7743  -6.7743  -6.7602  -6.7601  -6.3836  -6.3836  -6.3213  -6.3212
    -6.1330  -6.1330  -6.0882  -6.0882  -5.9357  -5.9357  -5.8353  -5.8352
    -5.7860  -5.7858  -5.5949  -5.5947  -5.5275  -5.5275  -5.5132  -5.5131
    -5.1647  -5.1647  -5.1376  -5.1375  -5.0508  -5.0508  -4.9531  -4.9531
    -4.7802  -4.7802  -4.7292  -4.7292  -4.6403  -4.6403  -4.5509  -4.5509
    -4.4875  -4.4874  -4.4665  -4.4665  -4.4017  -4.4017  -4.3526  -4.3526
    -4.2697  -4.2696  -4.2235  -4.2235  -4.1632  -4.1631  -4.1220  -4.1219
    -4.0003  -4.0002  -3.9858  -3.9858  -3.8582  -3.8581  -3.7855  -3.7854
    -3.6805  -3.6804  -3.6096  -3.6095  -3.5636  -3.5636  -3.4317  -3.4317
    -3.3734  -3.3734  -3.2970  -3.2969  -3.2724  -3.2724  -3.2252  -3.2252
    -3.1815  -3.1815  -3.1381  -3.1381  -3.0043  -3.0043  -2.9193  -2.9193
    -2.8978  -2.8977  -2.8438  -2.8438  -2.8032  -2.8032  -2.7477  -2.7477
    -2.3280  -2.3280  -2.1038  -2.1038  -2.0872  -2.0872  -2.0444  -2.0444
    -2.0172  -2.0172  -1.9506  -1.9505  -1.8799  -1.8798  -1.8264  -1.8263
    -0.6830  -0.6829  -0.6287  -0.6286  -0.5100  -0.5099  -0.4770  -0.4769
    -0.3973  -0.3973  -0.2612  -0.2612  -0.1654  -0.1654  -0.1046  -0.1046
     0.3780   0.3780   0.3945   0.3946   1.0418   1.0418   1.1131   1.1131

          k =-0.5000-0.2912-0.0813 ( 29116 PWs)   bands (ev):

   -20.5367 -20.5366 -20.5357 -20.5356 -19.4482 -19.4481 -19.4470 -19.4469
   -18.1795 -18.1791 -18.1563 -18.1559 -15.4228 -15.4227 -15.4085 -15.4084
   -15.3720 -15.3719 -15.3555 -15.3553 -13.9452 -13.9451 -13.9348 -13.9348
   -13.4660 -13.4660 -13.4508 -13.4508 -12.8116 -12.8114 -12.7838 -12.7837
   -12.5039 -12.5038 -12.4834 -12.4833 -12.3566 -12.3566 -12.3283 -12.3283
   -12.0125 -12.0124 -11.9802 -11.9801 -11.5509 -11.5509 -11.4852 -11.4852
   -10.8323 -10.8322 -10.8156 -10.8155  -9.5793  -9.5793  -9.5389  -9.5389
    -9.2133  -9.2133  -9.1624  -9.1623  -9.1144  -9.1143  -9.0592  -9.0592
    -8.8427  -8.8426  -8.8052  -8.8051  -8.3099  -8.3098  -8.2106  -8.2105
    -7.5327  -7.5326  -7.4618  -7.4618  -7.1637  -7.1636  -7.0924  -7.0924
    -6.7751  -6.7750  -6.7592  -6.7591  -6.3595  -6.3595  -6.3378  -6.3378
    -6.1270  -6.1269  -6.0852  -6.0851  -5.9218  -5.9218  -5.8537  -5.8536
    -5.7845  -5.7843  -5.5961  -5.5959  -5.5470  -5.5469  -5.5076  -5.5076
    -5.1548  -5.1548  -5.1333  -5.1332  -5.0311  -5.0311  -4.9532  -4.9531
    -4.7724  -4.7724  -4.7363  -4.7363  -4.6429  -4.6429  -4.5432  -4.5431
    -4.5022  -4.5021  -4.4655  -4.4655  -4.4314  -4.4313  -4.3553  -4.3553
    -4.2511  -4.2511  -4.2291  -4.2291  -4.1774  -4.1773  -4.1234  -4.1233
    -3.9960  -3.9958  -3.9520  -3.9519  -3.8665  -3.8664  -3.8066  -3.8066
    -3.6676  -3.6676  -3.6363  -3.6362  -3.5778  -3.5777  -3.4579  -3.4578
    -3.3445  -3.3445  -3.2771  -3.2771  -3.2486  -3.2486  -3.2374  -3.2373
    -3.1512  -3.1512  -3.1343  -3.1343  -3.0045  -3.0045  -2.9207  -2.9206
    -2.8904  -2.8904  -2.8386  -2.8386  -2.8156  -2.8156  -2.7540  -2.7540
    -2.2713  -2.2713  -2.1244  -2.1244  -2.1101  -2.1101  -2.0415  -2.0415
    -2.0165  -2.0164  -1.9669  -1.9668  -1.9112  -1.9112  -1.8465  -1.8464
    -0.6574  -0.6573  -0.6148  -0.6147  -0.5256  -0.5255  -0.4740  -0.4739
    -0.3659  -0.3659  -0.2689  -0.2689  -0.1606  -0.1605  -0.1144  -0.1144
     0.3433   0.3433   0.3590   0.3591   1.0952   1.0952   1.1532   1.1532

          k =-0.5000-0.2912-0.7168 ( 29120 PWs)   bands (ev):

   -20.5363 -20.5363 -20.5360 -20.5360 -19.4480 -19.4479 -19.4472 -19.4471
   -18.1795 -18.1791 -18.1563 -18.1559 -15.4146 -15.4144 -15.4135 -15.4134
   -15.3755 -15.3753 -15.3552 -15.3551 -13.9461 -13.9460 -13.9439 -13.9438
   -13.4494 -13.4493 -13.4466 -13.4465 -12.8127 -12.8125 -12.7857 -12.7855
   -12.5032 -12.5030 -12.4968 -12.4966 -12.3427 -12.3426 -12.3404 -12.3403
   -12.0094 -12.0093 -11.9824 -11.9823 -11.5261 -11.5260 -11.5207 -11.5205
   -10.8225 -10.8223 -10.8126 -10.8124  -9.5581  -9.5579  -9.5528  -9.5527
    -9.1828  -9.1827  -9.1810  -9.1810  -9.0962  -9.0961  -9.0896  -9.0895
    -8.8465  -8.8464  -8.8050  -8.8049  -8.3187  -8.3186  -8.2096  -8.2096
    -7.5356  -7.5356  -7.4571  -7.4570  -7.1553  -7.1552  -7.1108  -7.1108
    -6.7778  -6.7777  -6.7562  -6.7561  -6.3538  -6.3537  -6.3355  -6.3355
    -6.1196  -6.1195  -6.0792  -6.0791  -5.8995  -5.8994  -5.8747  -5.8746
    -5.7846  -5.7843  -5.5910  -5.5909  -5.5458  -5.5458  -5.5284  -5.5283
    -5.1588  -5.1587  -5.1262  -5.1261  -5.0454  -5.0454  -4.9537  -4.9536
    -4.7558  -4.7557  -4.7288  -4.7287  -4.6030  -4.6030  -4.5949  -4.5948
    -4.4869  -4.4868  -4.4703  -4.4702  -4.3805  -4.3804  -4.3736  -4.3736
    -4.2580  -4.2580  -4.2547  -4.2546  -4.1738  -4.1737  -4.1408  -4.1407
    -3.9846  -3.9844  -3.9439  -3.9437  -3.8637  -3.8636  -3.8595  -3.8594
    -3.6652  -3.6652  -3.6465  -3.6465  -3.5829  -3.5828  -3.4629  -3.4629
    -3.3488  -3.3488  -3.2511  -3.2511  -3.2306  -3.2305  -3.1849  -3.1849
    -3.1750  -3.1750  -3.1082  -3.1082  -3.0121  -3.0120  -2.9224  -2.9223
    -2.8739  -2.8738  -2.8432  -2.8432  -2.8263  -2.8263  -2.7631  -2.7631
    -2.1780  -2.1780  -2.1623  -2.1623  -2.1128  -2.1128  -2.0897  -2.0896
    -2.0340  -2.0339  -1.9623  -1.9623  -1.9357  -1.9356  -1.8672  -1.8671
    -0.6329  -0.6329  -0.5971  -0.5970  -0.5332  -0.5331  -0.4820  -0.4820
    -0.3193  -0.3191  -0.2931  -0.2930  -0.1444  -0.1444  -0.1341  -0.1340
     0.3148   0.3149   0.3219   0.3220   1.1673   1.1675   1.1699   1.1701

     highest occupied level (ev):     1.1976

!    total energy              =   -1244.78824638 Ry
     Harris-Foulkes estimate   =   -1244.78824639 Ry
     estimated scf accuracy    <       0.00000002 Ry

     The total energy is the sum of the following terms:

     one-electron contribution =   -1101.21559950 Ry
     hartree contribution      =     692.40352720 Ry
     xc contribution           =    -382.42235880 Ry
     ewald contribution        =    -452.87343996 Ry
     Dispersion Correction     =      -0.68037532 Ry

     convergence has been achieved in  13 iterations

     Forces acting on atoms (cartesian axes, Ry/au):

     atom    1 type  1   force =     0.00024858   -0.00067843    0.00028696
     atom    2 type  1   force =     0.00024540   -0.00046316   -0.00043613
     atom    3 type  2   force =     0.00040307    0.00047551   -0.00026878
     atom    4 type  1   force =     0.00021163   -0.00027674   -0.00007192
     atom    5 type  1   force =     0.00014781    0.00043887   -0.00012525
     atom    6 type  2   force =     0.00002124    0.00071306   -0.00010955
     atom    7 type  1   force =     0.00037063    0.00007926   -0.00023870
     atom    8 type  2   force =    -0.00008002    0.00024043    0.00028369
     atom    9 type  1   force =    -0.00007817    0.00000939    0.00010601
     atom   10 type  1   force =     0.00008577   -0.00013058   -0.00033778
     atom   11 type  1   force =    -0.00012484    0.00006559   -0.00023887
     atom   12 type  2   force =     0.00013144    0.00016692    0.00004612
     atom   13 type  1   force =    -0.00022289    0.00012973   -0.00002716
     atom   14 type  2   force =    -0.00013722   -0.00035648    0.00068271
     atom   15 type  1   force =     0.00034144   -0.00052831   -0.00023778
     atom   16 type  1   force =     0.00007927    0.00021120   -0.00059112
     atom   17 type  2   force =    -0.00021109    0.00027155    0.00061893
     atom   18 type  1   force =    -0.00026846    0.00039700    0.00015246
     atom   19 type  2   force =    -0.00024320    0.00047861    0.00070152
     atom   20 type  1   force =    -0.00032273    0.00047050   -0.00061255
     atom   21 type  1   force =    -0.00036240    0.00009991    0.00004109
     atom   22 type  2   force =     0.00006684   -0.00051509    0.00037893
     atom   23 type  1   force =    -0.00030171   -0.00004920    0.00078898
     atom   24 type  2   force =    -0.00004025   -0.00044647   -0.00023923
     atom   25 type  1   force =     0.00018623   -0.00028238   -0.00028275
     atom   26 type  2   force =    -0.00042622   -0.00023961    0.00004848
     atom   27 type  2   force =     0.00031078   -0.00036284   -0.00042229
     atom   28 type  2   force =     0.00044284    0.00063710   -0.00007023
     atom   29 type  1   force =    -0.00024616    0.00008604   -0.00023515
     atom   30 type  2   force =     0.00024004   -0.00006725   -0.00032647
     atom   31 type  2   force =    -0.00051807    0.00030202   -0.00014997
     atom   32 type  2   force =    -0.00041539   -0.00053781   -0.00027213
     atom   33 type  1   force =    -0.00015868    0.00014666   -0.00016451
     atom   34 type  2   force =    -0.00016612    0.00035039    0.00000092
     atom   35 type  2   force =    -0.00054205   -0.00015225   -0.00001634
     atom   36 type  2   force =     0.00009397   -0.00017453   -0.00048122
     atom   37 type  4   force =    -0.00020591    0.00011615    0.00023985
     atom   38 type  3   force =     0.00046769   -0.00033928   -0.00065523
     atom   39 type  2   force =     0.00005272    0.00026514    0.00010813
     atom   40 type  3   force =     0.00037827   -0.00004613   -0.00088056
     atom   41 type  2   force =    -0.00040307    0.00047551    0.00026878
     atom   42 type  2   force =    -0.00040307   -0.00047551    0.00026878
     atom   43 type  2   force =     0.00040307   -0.00047551   -0.00026878
     atom   44 type  1   force =    -0.00021163   -0.00027674    0.00007192
     atom   45 type  1   force =    -0.00021163    0.00027674    0.00007192
     atom   46 type  1   force =     0.00021163    0.00027674   -0.00007192
     atom   47 type  1   force =    -0.00014781    0.00043887    0.00012525
     atom   48 type  1   force =    -0.00014781   -0.00043887    0.00012525
     atom   49 type  1   force =     0.00014781   -0.00043887   -0.00012525
     atom   50 type  2   force =    -0.00002124    0.00071306    0.00010955
     atom   51 type  2   force =    -0.00002124   -0.00071306    0.00010955
     atom   52 type  2   force =     0.00002124   -0.00071306   -0.00010955
     atom   53 type  1   force =    -0.00037063    0.00007926    0.00023870
     atom   54 type  1   force =    -0.00037063   -0.00007926    0.00023870
     atom   55 type  1   force =     0.00037063   -0.00007926   -0.00023870
     atom   56 type  2   force =     0.00008002    0.00024043   -0.00028369
     atom   57 type  2   force =     0.00008002   -0.00024043   -0.00028369
     atom   58 type  2   force =    -0.00008002   -0.00024043    0.00028369
     atom   59 type  1   force =     0.00007817    0.00000939   -0.00010601
     atom   60 type  1   force =     0.00007817   -0.00000939   -0.00010601
     atom   61 type  1   force =    -0.00007817   -0.00000939    0.00010601
     atom   62 type  1   force =    -0.00008577   -0.00013058    0.00033778
     atom   63 type  1   force =    -0.00008577    0.00013058    0.00033778
     atom   64 type  1   force =     0.00008577    0.00013058   -0.00033778
     atom   65 type  1   force =     0.00012484    0.00006559    0.00023887
     atom   66 type  1   force =     0.00012484   -0.00006559    0.00023887
     atom   67 type  1   force =    -0.00012484   -0.00006559   -0.00023887
     atom   68 type  2   force =    -0.00013144    0.00016692   -0.00004612
     atom   69 type  2   force =    -0.00013144   -0.00016692   -0.00004612
     atom   70 type  2   force =     0.00013144   -0.00016692    0.00004612
     atom   71 type  1   force =     0.00022289    0.00012973    0.00002716
     atom   72 type  1   force =     0.00022289   -0.00012973    0.00002716
     atom   73 type  1   force =    -0.00022289   -0.00012973   -0.00002716
     atom   74 type  2   force =     0.00013722   -0.00035648   -0.00068271
     atom   75 type  2   force =     0.00013722    0.00035648   -0.00068271
     atom   76 type  2   force =    -0.00013722    0.00035648    0.00068271
     atom   77 type  1   force =    -0.00034144   -0.00052831    0.00023778
     atom   78 type  1   force =    -0.00034144    0.00052831    0.00023778
     atom   79 type  1   force =     0.00034144    0.00052831   -0.00023778
     atom   80 type  1   force =    -0.00007927    0.00021120    0.00059112
     atom   81 type  1   force =    -0.00007927   -0.00021120    0.00059112
     atom   82 type  1   force =     0.00007927   -0.00021120   -0.00059112
     atom   83 type  1   force =     0.00015868    0.00014666    0.00016451
     atom   84 type  1   force =     0.00015868   -0.00014666    0.00016451
     atom   85 type  1   force =    -0.00015868   -0.00014666   -0.00016451
     atom   86 type  2   force =     0.00021109    0.00027155   -0.00061893
     atom   87 type  2   force =     0.00021109   -0.00027155   -0.00061893
     atom   88 type  2   force =    -0.00021109   -0.00027155    0.00061893
     atom   89 type  1   force =     0.00026846    0.00039700   -0.00015246
     atom   90 type  1   force =     0.00026846   -0.00039700   -0.00015246
     atom   91 type  1   force =    -0.00026846   -0.00039700    0.00015246
     atom   92 type  2   force =     0.00024320    0.00047861   -0.00070152
     atom   93 type  2   force =     0.00024320   -0.00047861   -0.00070152
     atom   94 type  2   force =    -0.00024320   -0.00047861    0.00070152
     atom   95 type  1   force =     0.00032273    0.00047050    0.00061255
     atom   96 type  1   force =     0.00032273   -0.00047050    0.00061255
     atom   97 type  1   force =    -0.00032273   -0.00047050   -0.00061255
     atom   98 type  1   force =     0.00036240    0.00009991   -0.00004109
     atom   99 type  1   force =     0.00036240   -0.00009991   -0.00004109
     atom  100 type  1   force =    -0.00036240   -0.00009991    0.00004109
     atom  101 type  2   force =    -0.00006684   -0.00051509   -0.00037893
     atom  102 type  2   force =    -0.00006684    0.00051509   -0.00037893
     atom  103 type  2   force =     0.00006684    0.00051509    0.00037893
     atom  104 type  1   force =     0.00030171   -0.00004920   -0.00078898
     atom  105 type  1   force =     0.00030171    0.00004920   -0.00078898
     atom  106 type  1   force =    -0.00030171    0.00004920    0.00078898
     atom  107 type  2   force =     0.00004025   -0.00044647    0.00023923
     atom  108 type  2   force =     0.00004025    0.00044647    0.00023923
     atom  109 type  2   force =    -0.00004025    0.00044647   -0.00023923
     atom  110 type  1   force =    -0.00018623   -0.00028238    0.00028275
     atom  111 type  1   force =    -0.00018623    0.00028238    0.00028275
     atom  112 type  1   force =     0.00018623    0.00028238   -0.00028275
     atom  113 type  2   force =     0.00042622   -0.00023961   -0.00004848
     atom  114 type  2   force =     0.00042622    0.00023961   -0.00004848
     atom  115 type  2   force =    -0.00042622    0.00023961    0.00004848
     atom  116 type  2   force =    -0.00031078   -0.00036284    0.00042229
     atom  117 type  2   force =    -0.00031078    0.00036284    0.00042229
     atom  118 type  2   force =     0.00031078    0.00036284   -0.00042229
     atom  119 type  2   force =    -0.00044284    0.00063710    0.00007023
     atom  120 type  2   force =    -0.00044284   -0.00063710    0.00007023
     atom  121 type  2   force =     0.00044284   -0.00063710   -0.00007023
     atom  122 type  1   force =     0.00024616    0.00008604    0.00023515
     atom  123 type  1   force =     0.00024616   -0.00008604    0.00023515
     atom  124 type  1   force =    -0.00024616   -0.00008604   -0.00023515
     atom  125 type  2   force =    -0.00024004   -0.00006725    0.00032647
     atom  126 type  2   force =    -0.00024004    0.00006725    0.00032647
     atom  127 type  2   force =     0.00024004    0.00006725   -0.00032647
     atom  128 type  2   force =     0.00051807    0.00030202    0.00014997
     atom  129 type  2   force =     0.00051807   -0.00030202    0.00014997
     atom  130 type  2   force =    -0.00051807   -0.00030202   -0.00014997
     atom  131 type  2   force =     0.00041539   -0.00053781    0.00027213
     atom  132 type  2   force =     0.00041539    0.00053781    0.00027213
     atom  133 type  2   force =    -0.00041539    0.00053781   -0.00027213
     atom  134 type  2   force =     0.00016612    0.00035039   -0.00000092
     atom  135 type  2   force =     0.00016612   -0.00035039   -0.00000092
     atom  136 type  2   force =    -0.00016612   -0.00035039    0.00000092
     atom  137 type  2   force =     0.00054205   -0.00015225    0.00001634
     atom  138 type  2   force =     0.00054205    0.00015225    0.00001634
     atom  139 type  2   force =    -0.00054205    0.00015225   -0.00001634
     atom  140 type  2   force =    -0.00009397   -0.00017453    0.00048122
     atom  141 type  2   force =    -0.00009397    0.00017453    0.00048122
     atom  142 type  2   force =     0.00009397    0.00017453   -0.00048122
     atom  143 type  4   force =     0.00020591    0.00011615   -0.00023985
     atom  144 type  4   force =     0.00020591   -0.00011615   -0.00023985
     atom  145 type  4   force =    -0.00020591   -0.00011615    0.00023985
     atom  146 type  3   force =    -0.00046769   -0.00033928    0.00065523
     atom  147 type  3   force =    -0.00046769    0.00033928    0.00065523
     atom  148 type  3   force =     0.00046769    0.00033928   -0.00065523
     atom  149 type  2   force =    -0.00005272    0.00026514   -0.00010813
     atom  150 type  2   force =    -0.00005272   -0.00026514   -0.00010813
     atom  151 type  2   force =     0.00005272   -0.00026514    0.00010813
     atom  152 type  3   force =    -0.00037827   -0.00004613    0.00088056
     atom  153 type  3   force =    -0.00037827    0.00004613    0.00088056
     atom  154 type  3   force =     0.00037827    0.00004613   -0.00088056
     atom  155 type  1   force =    -0.00024858   -0.00067843   -0.00028696
     atom  156 type  1   force =    -0.00024858    0.00067843   -0.00028696
     atom  157 type  1   force =     0.00024858    0.00067843    0.00028696
     atom  158 type  1   force =    -0.00024540   -0.00046316    0.00043613
     atom  159 type  1   force =    -0.00024540    0.00046316    0.00043613
     atom  160 type  1   force =     0.00024540    0.00046316   -0.00043613

     Total force =     0.007398     Total SCF correction =     0.000233

     BFGS Geometry Optimization

     bfgs converged in   1 scf cycles and   0 bfgs steps
     (criteria: energy <  1.0E-04 Ry, force <  1.0E-03 Ry/Bohr)

     End of BFGS Geometry Optimization

     Final energy   =   -1244.7882463762 Ry
Begin final coordinates

ATOMIC_POSITIONS (angstrom)
C        0.759802000   3.290261000   7.271123000
C        0.265094000   4.216754000   6.348240000
H        0.491227000   4.059457000   5.293220000
C       -0.494429000   5.308821000   6.759567000
C       -0.787837000   5.451136000   8.129497000
H       -1.404027000   6.285629000   8.463148000
C       -0.303562000   4.542615000   9.054023000
H       -0.542899000   4.705792000  10.103457000
C        0.489526000   3.444253000   8.664969000
C        1.066974000   2.484814000   9.616213000
C        7.159088000   2.614472000   0.226791000
H        6.511070000   3.416825000   0.571906000
C        7.701530000   1.740841000   1.127854000
H        8.330019000   0.942808000   0.722327000
C        7.526585000   1.742526000   2.544853000
C        6.790308000   2.727633000   3.244044000
H        6.344627000   3.558198000   2.697065000
C       -2.553202000   2.658779000   4.605183000
H        6.019138000   3.435715000   5.094676000
C       -2.003741000   1.591982000   5.375045000
C       -1.247110000   0.607923000   4.680003000
H       -0.800427000  15.494927000   5.220494000
C       -1.071164000   0.694102000   3.315116000
H       -0.496035000  -0.074390000   2.797705000
C       -3.041508000   2.501856000   7.387689000
H       -2.638681000   3.520413000   7.274076000
H       -3.087894000   2.266027000   8.455047000
H       -4.067960000   2.481285000   6.985003000
C       -1.618482000   0.432525000   7.483522000
H       -2.054390000  15.178970000   7.199118000
H       -1.809187000   0.598363000   8.548640000
H       -0.529037000   0.389905000   7.334041000
C       -0.975993000   6.319273000   5.760564000
H       -1.462484000   7.172302000   6.250269000
H       -1.693450000   5.875751000   5.052192000
H       -0.134475000   6.707014000   5.165696000
N       -2.197246000   1.524853000   6.717190000
O        1.515240000   2.266076000   6.824108000
H        1.773574000   1.760816000   7.698471000
O        1.800141000   1.531306000   9.163964000
H       -0.836367000  11.918457000  10.911980000
H        2.330283000  11.658553000   5.510250000
H        3.657877000   3.799553000  -0.108510000
C        0.149299000  13.167821000   9.445643000
C        3.315939000  10.409179000   4.043903000
C        2.672211000   2.550179000   1.357827000
C        0.442707000  13.310136000   8.075713000
C        3.609347000  10.266864000   2.673973000
C        2.378803000   2.407864000   2.727757000
H        1.058887000  14.144629000   7.742052000
H        4.225537000   9.432371000   2.340322000
H        1.762623000   1.573371000   3.061418000
C       -0.041568000  12.401615000   7.151187000
C        3.125072000  11.175385000   1.749447000
C        2.863078000   3.316385000   3.652283000
H        0.197759000  12.564792000   6.101743000
H        3.364409000  11.012208000   0.700013000
H        2.623751000   3.153208000   4.701727000
C       -0.834666000  11.303253000   7.540241000
C        2.331984000  12.273747000   2.138501000
C        3.656176000   4.414747000   3.263229000
C       -1.412104000  10.343814000   6.588987000
C        1.754536000  13.233186000   1.187257000
C        4.233614000   5.374186000   4.214483000
C       -1.170938000  10.473472000   5.174949000
C       -4.337578000  13.103528000  10.576679000
C        3.992448000   5.244528000   5.628521000
H       -0.522910000  11.275825000   4.829834000
H       -3.689560000  12.301175000  10.231564000
H        3.344420000   4.442175000   5.973636000
C       -1.713370000   9.599841000   4.273876000
C       -4.880020000  13.977159000   9.675616000
C        4.534880000   6.118159000   6.529594000
H       -2.341859000   8.801808000   4.679413000
H       -5.508509000  14.775192000  10.081143000
H        5.163369000   6.916192000   6.124057000
C       -1.538425000   9.601526000   2.856877000
C       -4.705075000  13.975474000   8.258617000
C        4.359935000   6.116474000   7.946593000
C       -0.802158000  10.586633000   2.157696000
C       -3.968798000  12.990367000   7.559426000
C        3.623668000   5.131367000   8.645774000
C        0.630853000  14.178273000  10.444646000
C        3.797503000   9.398727000   5.042906000
C        2.190657000   1.539727000   0.358824000
H       -0.356477000  11.417198000   2.704675000
H       -3.523117000  12.159802000   8.106405000
H        3.177987000   4.300802000   8.098795000
C        8.541352000  10.517779000   0.796547000
C        5.374712000  13.059221000   6.198287000
C       -5.719842000   5.200221000  10.006923000
H       -0.030978000  11.294715000   0.307054000
H       -3.197628000  12.282285000   5.708794000
H        2.852488000   4.423285000  10.496416000
C        7.991901000   9.450982000   0.026685000
C        4.825251000  14.126018000   5.428425000
C       -5.170391000   6.267018000  10.776785000
C        7.235260000   8.466923000   0.721737000
C        4.068620000  15.110077000   6.123467000
C       -4.413750000   7.251077000  10.081733000
H        6.788577000   7.635927000   0.181246000
H        3.621937000   0.223073000   5.582976000
H       -3.967067000   8.082073000  10.622224000
C        7.059324000   8.553102000   2.086614000
C        3.892674000  15.023898000   7.488354000
C       -4.237814000   7.164898000   8.716856000
H        6.484185000   7.784610000   2.604025000
H        3.317545000  15.792390000   8.005765000
H       -3.662675000   7.933390000   8.199445000
C        2.696368000  10.360856000   8.817521000
C        5.863018000  13.216144000   3.415781000
C        0.125142000   5.357144000   1.985949000
H        2.293541000  11.379413000   8.931124000
H        5.460191000  12.197587000   3.529394000
H        0.527969000   4.338587000   1.872346000
H        2.742754000  10.125027000   7.750163000
H        5.909404000  13.451973000   2.348423000
H        0.078756000   5.592973000   3.053307000
H        3.722820000  10.340285000   9.220197000
H        6.889470000  13.236715000   3.818467000
H       -0.901310000   5.377715000   1.583273000
C        1.273342000   8.291525000   8.721688000
C        4.439992000  15.285475000   3.319948000
C        1.548168000   7.426475000   2.081782000
H        1.709260000   7.319970000   9.006092000
H        4.875900000   0.539030000   3.604352000
H        1.112250000   8.398030000   1.797378000
H        1.464047000   8.457363000   7.656560000
H        4.630697000  15.119637000   2.254830000
H        1.357463000   7.260637000   3.146910000
H        0.183907000   8.248905000   8.871159000
H        3.350547000  15.328095000   3.469429000
H        2.637603000   7.469095000   1.932311000
H        1.117354000  15.031302000   9.954941000
H        4.283994000   8.545698000   4.553201000
H        1.704156000   0.686698000   0.848529000
H        7.681610000  13.734751000   0.349548000
H        4.514960000   9.842249000   5.751278000
H       -4.860100000   1.983249000  10.453922000
H        6.122625000  14.566014000   0.236034000
H        2.955985000   9.010986000   5.637774000
H       -3.301115000   1.151986000  10.567436000
N        1.852116000   9.383853000   9.488020000
N        5.018756000  14.193147000   4.086280000
N        0.969394000   6.334147000   1.315450000
O       -1.860380000  10.125076000   9.381092000
O        1.306270000  13.451924000   3.979362000
O        4.681890000   5.592924000   1.422378000
H       -2.118704000   9.619816000   8.506729000
H        1.047936000  13.957184000   3.104999000
H        4.940214000   6.098184000   2.296741000
O       -2.145271000   9.390306000   7.041236000
O        1.021369000  14.186694000   1.639506000
O        4.966781000   6.327694000   3.762234000
C       -1.104932000  11.149261000   8.934077000
C        2.061708000  12.427739000   3.532347000
C        3.926442000   4.568739000   1.869393000
C       -0.610224000  12.075754000   9.856960000
C        2.556416000  11.501246000   4.455230000
C        3.431734000   3.642246000   0.946510000
End final coordinates



     Writing output data file 2hc_2_424.save
 
     init_run     :    301.92s CPU    304.38s WALL (       1 calls)
     electrons    :   7552.25s CPU   7624.09s WALL (       1 calls)
     forces       :    105.89s CPU    106.43s WALL (       1 calls)

     Called by init_run:
     wfcinit      :    296.32s CPU    298.51s WALL (       1 calls)
     potinit      :      2.24s CPU      2.28s WALL (       1 calls)

     Called by electrons:
     c_bands      :   6795.05s CPU   6861.40s WALL (      13 calls)
     sum_band     :    736.01s CPU    738.94s WALL (      13 calls)
     v_of_rho     :      4.18s CPU      4.21s WALL (      14 calls)
     newd         :      7.75s CPU     10.41s WALL (      14 calls)
     mix_rho      :      0.78s CPU      0.83s WALL (      13 calls)

     Called by c_bands:
     init_us_2    :     57.85s CPU     57.95s WALL (     560 calls)
     cegterg      :   6598.25s CPU   6664.43s WALL (     260 calls)

     Called by sum_band:
     sum_band:bec :      0.25s CPU      0.25s WALL (     260 calls)
     addusdens    :      7.99s CPU     10.51s WALL (      13 calls)

     Called by *egterg:
     h_psi        :   4190.68s CPU   4194.01s WALL (    1322 calls)
     s_psi        :    882.88s CPU    883.12s WALL (    1322 calls)
     g_psi        :     23.21s CPU     23.22s WALL (    1042 calls)
     cdiaghg      :    188.45s CPU    188.52s WALL (    1302 calls)

     Called by h_psi:
     h_psi:pot    :   4163.15s CPU   4165.74s WALL (    1322 calls)
     h_psi:calbec :    822.29s CPU    822.59s WALL (    1322 calls)
     vloc_psi     :   2458.08s CPU   2460.10s WALL (    1322 calls)
     add_vuspsi   :    882.78s CPU    883.04s WALL (    1322 calls)

     General routines
     calbec       :   1169.25s CPU   1169.61s WALL (    1662 calls)
     fft          :      1.82s CPU      1.83s WALL (     183 calls)
     fftw         :   2441.33s CPU   2443.11s WALL (  396200 calls)
     davcio       :      0.02s CPU      9.44s WALL (      20 calls)
 
     Parallel routines
     fft_scatter  :    368.51s CPU    368.97s WALL (  396383 calls)
 
     PWSCF        :     2h12m CPU        2h14m WALL

 
   This run was terminated on:  15: 8:11  10Nov2017            

=------------------------------------------------------------------------------=
   JOB DONE.
=------------------------------------------------------------------------------=
