 Entering Gaussian System, Link 0=g09
 Input=2hp_2_k846-mega_dimer_0.com
 Output=2hp_2_k846-mega_dimer_0.out
 Initial command:
 /share/apps/gaussian/g09_D01/g09/l1.exe "/tmp/160988.1.all.q/Gau-9839.inp" -scrdir="/tmp/160988.1.all.q/"
 Entering Link 1 = /share/apps/gaussian/g09_D01/g09/l1.exe PID=      9840.
  
 Copyright (c) 1988,1990,1992,1993,1995,1998,2003,2009,2013,
            Gaussian, Inc.  All Rights Reserved.
  
 This is part of the Gaussian(R) 09 program.  It is based on
 the Gaussian(R) 03 system (copyright 2003, Gaussian, Inc.),
 the Gaussian(R) 98 system (copyright 1998, Gaussian, Inc.),
 the Gaussian(R) 94 system (copyright 1995, Gaussian, Inc.),
 the Gaussian 92(TM) system (copyright 1992, Gaussian, Inc.),
 the Gaussian 90(TM) system (copyright 1990, Gaussian, Inc.),
 the Gaussian 88(TM) system (copyright 1988, Gaussian, Inc.),
 the Gaussian 86(TM) system (copyright 1986, Carnegie Mellon
 University), and the Gaussian 82(TM) system (copyright 1983,
 Carnegie Mellon University). Gaussian is a federally registered
 trademark of Gaussian, Inc.
  
 This software contains proprietary and confidential information,
 including trade secrets, belonging to Gaussian, Inc.
  
 This software is provided under written license and may be
 used, copied, transmitted, or stored only in accord with that
 written license.
  
 The following legend is applicable only to US Government
 contracts under FAR:
  
                    RESTRICTED RIGHTS LEGEND
  
 Use, reproduction and disclosure by the US Government is
 subject to restrictions as set forth in subparagraphs (a)
 and (c) of the Commercial Computer Software - Restricted
 Rights clause in FAR 52.227-19.
  
 Gaussian, Inc.
 340 Quinnipiac St., Bldg. 40, Wallingford CT 06492
  
  
 ---------------------------------------------------------------
 Warning -- This program may not be used in any manner that
 competes with the business of Gaussian, Inc. or will provide
 assistance to any competitor of Gaussian, Inc.  The licensee
 of this program is prohibited from giving any competitor of
 Gaussian, Inc. access to this program.  By using this program,
 the user acknowledges that Gaussian, Inc. is engaged in the
 business of creating and licensing software in the field of
 computational chemistry and represents and warrants to the
 licensee that it is not a competitor of Gaussian, Inc. and that
 it will not use this program in any manner prohibited above.
 ---------------------------------------------------------------
  

 Cite this work as:
 Gaussian 09, Revision D.01,
 M. J. Frisch, G. W. Trucks, H. B. Schlegel, G. E. Scuseria, 
 M. A. Robb, J. R. Cheeseman, G. Scalmani, V. Barone, B. Mennucci, 
 G. A. Petersson, H. Nakatsuji, M. Caricato, X. Li, H. P. Hratchian, 
 A. F. Izmaylov, J. Bloino, G. Zheng, J. L. Sonnenberg, M. Hada, 
 M. Ehara, K. Toyota, R. Fukuda, J. Hasegawa, M. Ishida, T. Nakajima, 
 Y. Honda, O. Kitao, H. Nakai, T. Vreven, J. A. Montgomery, Jr., 
 J. E. Peralta, F. Ogliaro, M. Bearpark, J. J. Heyd, E. Brothers, 
 K. N. Kudin, V. N. Staroverov, T. Keith, R. Kobayashi, J. Normand, 
 K. Raghavachari, A. Rendell, J. C. Burant, S. S. Iyengar, J. Tomasi, 
 M. Cossi, N. Rega, J. M. Millam, M. Klene, J. E. Knox, J. B. Cross, 
 V. Bakken, C. Adamo, J. Jaramillo, R. Gomperts, R. E. Stratmann, 
 O. Yazyev, A. J. Austin, R. Cammi, C. Pomelli, J. W. Ochterski, 
 R. L. Martin, K. Morokuma, V. G. Zakrzewski, G. A. Voth, 
 P. Salvador, J. J. Dannenberg, S. Dapprich, A. D. Daniels, 
 O. Farkas, J. B. Foresman, J. V. Ortiz, J. Cioslowski, 
 and D. J. Fox, Gaussian, Inc., Wallingford CT, 2013.
 
 ******************************************
 Gaussian 09:  ES64L-G09RevD.01 24-Apr-2013
                 2-Nov-2017 
 ******************************************
 %chk=2hp_2_k846-mega_dimer_0.chk
 %nproc=4
 Will use up to    4 processors via shared memory.
 %mem=28GB
 ------------------------------------------
 #p wb97xd 6-311++G** td=(nstates=4) nosymm
 ------------------------------------------
 1/38=1/1;
 2/12=2,15=1,17=6,18=5,40=1/2;
 3/5=4,6=6,7=1111,11=9,16=1,25=1,30=1,74=-58/1,2,8,3;
 4//1;
 5/5=2,38=5/2;
 8/6=1,10=2,108=4/1;
 9/41=4,42=1,70=2/14;
 6/7=2,8=2,9=2,10=2/1;
 99/5=1,9=1/99;
 Leave Link    1 at Thu Nov  2 21:48:18 2017, MaxMem=  3758096384 cpu:         0.3
 (Enter /share/apps/gaussian/g09_D01/g09/l101.exe)
 -----
 Title
 -----
 Symbolic Z-matrix:
 Charge =  0 Multiplicity = 1
 C                    -0.24221  -15.90915  -0.27864 
 H                    -0.25247  -14.82936  -0.08988 
 H                    -1.25335  -16.24993  -0.55817 
 H                     0.43219  -16.12781  -1.12585 
 N                     0.20149  -16.61409   0.91648 
 C                     0.26152  -18.06887   0.81116 
 C                     0.61709  -15.95424   1.99916 
 H                    -0.4142   -18.39745   0.00792 
 H                     1.28683  -18.40192   0.56362 
 H                    -0.05982  -18.54073   1.74986 
 H                     0.58344  -14.8637   1.91606 
 C                     1.09358  -16.50122   3.17971 
 C                     1.58258  -15.65704   4.21945 
 H                     1.13036  -17.58094   3.30476 
 O                     1.67854  -14.38011   4.06809 
 C                     2.01418  -16.21763   5.52373 
 H                     2.34426  -13.94774   5.25004 
 C                     2.63323  -15.3435   6.47519 
 C                     1.79898  -17.5547   5.90548 
 O                     2.81471  -14.04465   6.19849 
 C                     3.04757  -15.83208   7.72606 
 C                     2.18984  -18.04733   7.14385 
 H                     1.26938  -18.23293   5.2381 
 H                     3.53435  -15.16623   8.44154 
 C                     2.81374  -17.16     8.01738 
 H                     1.96925  -19.06952   7.45196 
 F                     3.19989  -17.62719   9.25368 
 H                     1.24145  -14.78105  -6.05665 
 C                     1.91718  -15.10963  -5.2534 
 H                     2.94249  -14.77658  -5.50093 
 H                     1.59584  -14.63777  -4.31469 
 N                     1.85714  -16.56441  -5.14808 
 C                     1.41345  -17.26935  -6.3432 
 C                     2.27276  -17.22426  -4.0654 
 H                     1.40319  -18.34914  -6.15443 
 H                     0.40232  -16.92856  -6.62273 
 H                     2.08786  -17.05069  -7.1904 
 H                     2.2391   -18.3148  -4.14849 
 C                     2.74924  -16.67728  -2.88485 
 C                     3.23823  -17.52145  -1.8451 
 H                     2.78601  -15.59756  -2.7598 
 O                     3.33419  -18.79839  -1.99647 
 C                     3.66984  -16.96087  -0.54083 
 H                     3.99992  -19.23076  -0.81452 
 C                     3.45464  -15.6238  -0.15909 
 C                     4.28889  -17.835    0.41063 
 O                     4.47037  -19.13385   0.13394 
 H                     2.92504  -14.94557  -0.82647 
 C                     3.8455   -15.13117   1.0793 
 C                     4.70323  -17.34642   1.6615 
 H                     3.62491  -14.10898   1.3874 
 C                     4.4694   -16.0185   1.95282 
 H                     5.19002  -18.01227   2.37698 
 F                     4.85556  -15.55131   3.18912 
 
 NAtoms=     54 NQM=       54 NQMF=       0 NMMI=      0 NMMIF=      0
                NMic=       0 NMicF=      0.
                    Isotopes and Nuclear Properties:
 (Nuclear quadrupole moments (NQMom) in fm**2, nuclear magnetic moments (NMagM)
  in nuclear magnetons)

  Atom         1           2           3           4           5           6           7           8           9          10
 IAtWgt=          12           1           1           1          14          12          12           1           1           1
 AtmWgt=  12.0000000   1.0078250   1.0078250   1.0078250  14.0030740  12.0000000  12.0000000   1.0078250   1.0078250   1.0078250
 NucSpn=           0           1           1           1           2           0           0           1           1           1
 AtZEff=   0.0000000   0.0000000   0.0000000   0.0000000   0.0000000   0.0000000   0.0000000   0.0000000   0.0000000   0.0000000
 NQMom=    0.0000000   0.0000000   0.0000000   0.0000000   2.0440000   0.0000000   0.0000000   0.0000000   0.0000000   0.0000000
 NMagM=    0.0000000   2.7928460   2.7928460   2.7928460   0.4037610   0.0000000   0.0000000   2.7928460   2.7928460   2.7928460
 AtZNuc=   6.0000000   1.0000000   1.0000000   1.0000000   7.0000000   6.0000000   6.0000000   1.0000000   1.0000000   1.0000000

  Atom        11          12          13          14          15          16          17          18          19          20
 IAtWgt=           1          12          12           1          16          12           1          12          12          16
 AtmWgt=   1.0078250  12.0000000  12.0000000   1.0078250  15.9949146  12.0000000   1.0078250  12.0000000  12.0000000  15.9949146
 NucSpn=           1           0           0           1           0           0           1           0           0           0
 AtZEff=   0.0000000   0.0000000   0.0000000   0.0000000   0.0000000   0.0000000   0.0000000   0.0000000   0.0000000   0.0000000
 NQMom=    0.0000000   0.0000000   0.0000000   0.0000000   0.0000000   0.0000000   0.0000000   0.0000000   0.0000000   0.0000000
 NMagM=    2.7928460   0.0000000   0.0000000   2.7928460   0.0000000   0.0000000   2.7928460   0.0000000   0.0000000   0.0000000
 AtZNuc=   1.0000000   6.0000000   6.0000000   1.0000000   8.0000000   6.0000000   1.0000000   6.0000000   6.0000000   8.0000000

  Atom        21          22          23          24          25          26          27          28          29          30
 IAtWgt=          12          12           1           1          12           1          19           1          12           1
 AtmWgt=  12.0000000  12.0000000   1.0078250   1.0078250  12.0000000   1.0078250  18.9984033   1.0078250  12.0000000   1.0078250
 NucSpn=           0           0           1           1           0           1           1           1           0           1
 AtZEff=   0.0000000   0.0000000   0.0000000   0.0000000   0.0000000   0.0000000   0.0000000   0.0000000   0.0000000   0.0000000
 NQMom=    0.0000000   0.0000000   0.0000000   0.0000000   0.0000000   0.0000000   0.0000000   0.0000000   0.0000000   0.0000000
 NMagM=    0.0000000   0.0000000   2.7928460   2.7928460   0.0000000   2.7928460   2.6288670   2.7928460   0.0000000   2.7928460
 AtZNuc=   6.0000000   6.0000000   1.0000000   1.0000000   6.0000000   1.0000000   9.0000000   1.0000000   6.0000000   1.0000000

  Atom        31          32          33          34          35          36          37          38          39          40
 IAtWgt=           1          14          12          12           1           1           1           1          12          12
 AtmWgt=   1.0078250  14.0030740  12.0000000  12.0000000   1.0078250   1.0078250   1.0078250   1.0078250  12.0000000  12.0000000
 NucSpn=           1           2           0           0           1           1           1           1           0           0
 AtZEff=   0.0000000   0.0000000   0.0000000   0.0000000   0.0000000   0.0000000   0.0000000   0.0000000   0.0000000   0.0000000
 NQMom=    0.0000000   2.0440000   0.0000000   0.0000000   0.0000000   0.0000000   0.0000000   0.0000000   0.0000000   0.0000000
 NMagM=    2.7928460   0.4037610   0.0000000   0.0000000   2.7928460   2.7928460   2.7928460   2.7928460   0.0000000   0.0000000
 AtZNuc=   1.0000000   7.0000000   6.0000000   6.0000000   1.0000000   1.0000000   1.0000000   1.0000000   6.0000000   6.0000000

  Atom        41          42          43          44          45          46          47          48          49          50
 IAtWgt=           1          16          12           1          12          12          16           1          12          12
 AtmWgt=   1.0078250  15.9949146  12.0000000   1.0078250  12.0000000  12.0000000  15.9949146   1.0078250  12.0000000  12.0000000
 NucSpn=           1           0           0           1           0           0           0           1           0           0
 AtZEff=   0.0000000   0.0000000   0.0000000   0.0000000   0.0000000   0.0000000   0.0000000   0.0000000   0.0000000   0.0000000
 NQMom=    0.0000000   0.0000000   0.0000000   0.0000000   0.0000000   0.0000000   0.0000000   0.0000000   0.0000000   0.0000000
 NMagM=    2.7928460   0.0000000   0.0000000   2.7928460   0.0000000   0.0000000   0.0000000   2.7928460   0.0000000   0.0000000
 AtZNuc=   1.0000000   8.0000000   6.0000000   1.0000000   6.0000000   6.0000000   8.0000000   1.0000000   6.0000000   6.0000000

  Atom        51          52          53          54
 IAtWgt=           1          12           1          19
 AtmWgt=   1.0078250  12.0000000   1.0078250  18.9984033
 NucSpn=           1           0           1           1
 AtZEff=   0.0000000   0.0000000   0.0000000   0.0000000
 NQMom=    0.0000000   0.0000000   0.0000000   0.0000000
 NMagM=    2.7928460   0.0000000   2.7928460   2.6288670
 AtZNuc=   1.0000000   6.0000000   1.0000000   9.0000000
 Leave Link  101 at Thu Nov  2 21:48:18 2017, MaxMem=  3758096384 cpu:         0.4
 (Enter /share/apps/gaussian/g09_D01/g09/l202.exe)
 Symmetry turned off by external request.
 Stoichiometry    C22H24F2N2O4
 Framework group  C1[X(C22H24F2N2O4)]
 Deg. of freedom   156
 Full point group                 C1      NOp   1
                          Input orientation:                          
 ---------------------------------------------------------------------
 Center     Atomic      Atomic             Coordinates (Angstroms)
 Number     Number       Type             X           Y           Z
 ---------------------------------------------------------------------
      1          6           0       -0.242207  -15.909153   -0.278636
      2          1           0       -0.252468  -14.829358   -0.089876
      3          1           0       -1.253355  -16.249934   -0.558167
      4          1           0        0.432188  -16.127813   -1.125854
      5          7           0        0.201487  -16.614090    0.916476
      6          6           0        0.261517  -18.068873    0.811160
      7          6           0        0.617094  -15.954241    1.999155
      8          1           0       -0.414204  -18.397450    0.007919
      9          1           0        1.286833  -18.401920    0.563623
     10          1           0       -0.059815  -18.540733    1.749863
     11          1           0        0.583439  -14.863698    1.916064
     12          6           0        1.093579  -16.501219    3.179705
     13          6           0        1.582578  -15.657044    4.219453
     14          1           0        1.130357  -17.580937    3.304760
     15          8           0        1.678535  -14.380108    4.068086
     16          6           0        2.014177  -16.217632    5.523728
     17          1           0        2.344259  -13.947737    5.250035
     18          6           0        2.633227  -15.343501    6.475186
     19          6           0        1.798983  -17.554703    5.905478
     20          8           0        2.814705  -14.044646    6.198487
     21          6           0        3.047574  -15.832084    7.726059
     22          6           0        2.189840  -18.047327    7.143848
     23          1           0        1.269384  -18.232931    5.238097
     24          1           0        3.534352  -15.166230    8.441543
     25          6           0        2.813744  -17.160000    8.017382
     26          1           0        1.969254  -19.069516    7.451958
     27          9           0        3.199892  -17.627191    9.253681
     28          1           0        1.241451  -14.781049   -6.056648
     29          6           0        1.917182  -15.109626   -5.253396
     30          1           0        2.942488  -14.776579   -5.500933
     31          1           0        1.595839  -14.637766   -4.314693
     32          7           0        1.857142  -16.564408   -5.148080
     33          6           0        1.413453  -17.269346   -6.343196
     34          6           0        2.272759  -17.224258   -4.065401
     35          1           0        1.403192  -18.349141   -6.154426
     36          1           0        0.402315  -16.928565   -6.622727
     37          1           0        2.087858  -17.050686   -7.190404
     38          1           0        2.239104  -18.314801   -4.148492
     39          6           0        2.749244  -16.677280   -2.884851
     40          6           0        3.238233  -17.521455   -1.845103
     41          1           0        2.786011  -15.597562   -2.759796
     42          8           0        3.334190  -18.798391   -1.996470
     43          6           0        3.669842  -16.960867   -0.540828
     44          1           0        3.999924  -19.230762   -0.814521
     45          6           0        3.454638  -15.623796   -0.159088
     46          6           0        4.288887  -17.834998    0.410626
     47          8           0        4.470365  -19.133853    0.133937
     48          1           0        2.925038  -14.945568   -0.826469
     49          6           0        3.845500  -15.131172    1.079298
     50          6           0        4.703234  -17.346415    1.661499
     51          1           0        3.624914  -14.108983    1.387398
     52          6           0        4.469404  -16.018499    1.952822
     53          1           0        5.190022  -18.012269    2.376983
     54          9           0        4.855562  -15.551308    3.189121
 ---------------------------------------------------------------------
 Rotational constants (GHZ):      0.3396476      0.0627991      0.0609730
 Leave Link  202 at Thu Nov  2 21:48:19 2017, MaxMem=  3758096384 cpu:         0.0
 (Enter /share/apps/gaussian/g09_D01/g09/l301.exe)
 Standard basis: 6-311++G(d,p) (5D, 7F)
 Ernie: Thresh=  0.10000D-02 Tol=  0.10000D-05 Strict=F.
   828 basis functions,  1296 primitive gaussians,   858 cartesian basis functions
   110 alpha electrons      110 beta electrons
       nuclear repulsion energy      2878.3113883657 Hartrees.
 IExCor= 4639 DFT=T Ex+Corr=wB97XD ExCW=0 ScaHFX=  1.000000
 ScaDFX=  1.000000  1.000000  1.000000  1.000000 ScalE2=  1.000000  1.000000
 IRadAn=      0 IRanWt=     -1 IRanGd=            0 ICorTp=0 IEmpDi=121
  HFx wShort=  0.000000 wLong=  0.200000 cFull=  0.222036 cShort=  0.000000 cLong=  0.777964
  DFx wShort=  0.000000 wLong=  0.200000 cFull=  0.000000 cShort=  0.000000 cLong=  1.000000
 NAtoms=   54 NActive=   54 NUniq=   54 SFac= 1.00D+00 NAtFMM=   60 NAOKFM=F Big=F
 Integral buffers will be    131072 words long.
 Raffenetti 1 integral format.
 Two-electron integral symmetry is turned off.
 R6Disp:  Grimme-D2 Dispersion energy=       -0.0422413911 Hartrees.
 Nuclear repulsion after empirical dispersion term =     2878.2691469746 Hartrees.
 Leave Link  301 at Thu Nov  2 21:48:19 2017, MaxMem=  3758096384 cpu:         0.1
 (Enter /share/apps/gaussian/g09_D01/g09/l302.exe)
 NPDir=0 NMtPBC=     1 NCelOv=     1 NCel=       1 NClECP=     1 NCelD=      1
         NCelK=      1 NCelE2=     1 NClLst=     1 CellRange=     0.0.
 One-electron integrals computed using PRISM.
 NBasis=   828 RedAO= T EigKep=  1.12D-06  NBF=   828
 NBsUse=   822 1.00D-06 EigRej=  7.35D-07 NBFU=   822
 Precomputing XC quadrature grid using
 IXCGrd= 4 IRadAn=           0 IRanWt=          -1 IRanGd=           0 AccXCQ= 0.00D+00.
 Generated NRdTot=       0 NPtTot=           0 NUsed=           0 NTot=          32
 NSgBfM=   788   789   790   795   795 MxSgAt=    54 MxSgA2=    54.
 Leave Link  302 at Thu Nov  2 21:48:21 2017, MaxMem=  3758096384 cpu:         7.7
 (Enter /share/apps/gaussian/g09_D01/g09/l308.exe)
 Leave Link  308 at Thu Nov  2 21:48:21 2017, MaxMem=  3758096384 cpu:         0.7
 (Enter /share/apps/gaussian/g09_D01/g09/l303.exe)
 DipDrv:  MaxL=1.
 Leave Link  303 at Thu Nov  2 21:48:21 2017, MaxMem=  3758096384 cpu:         0.5
 (Enter /share/apps/gaussian/g09_D01/g09/l401.exe)
 ExpMin= 3.60D-02 ExpMax= 1.14D+04 ExpMxC= 1.72D+03 IAcc=3 IRadAn=         5 AccDes= 0.00D+00
 Harris functional with IExCor= 4639 and IRadAn=       5 diagonalized for initial guess.
 HarFok:  IExCor= 4639 AccDes= 0.00D+00 IRadAn=         5 IDoV= 1 UseB2=F ITyADJ=14
 ICtDFT=  3500011 ScaDFX=  1.000000  1.000000  1.000000  1.000000
 FoFCou: FMM=F IPFlag=           0 FMFlag=      100000 FMFlg1=           0
         NFxFlg=           0 DoJE=T BraDBF=F KetDBF=T FulRan=T
         wScrn=  0.000000 ICntrl=     500 IOpCl=  0 I1Cent=   200000004 NGrid=           0
         NMat0=    1 NMatS0=      1 NMatT0=    0 NMatD0=    1 NMtDS0=    0 NMtDT0=    0
 Symmetry not used in FoFCou.
 Harris En= -1402.79552083829    
 JPrj=0 DoOrth=F DoCkMO=F.
 Leave Link  401 at Thu Nov  2 21:48:49 2017, MaxMem=  3758096384 cpu:       104.0
 (Enter /share/apps/gaussian/g09_D01/g09/l502.exe)
 Closed shell SCF:
 Using DIIS extrapolation, IDIIS=  1040.
 Two-electron integral symmetry not used.
 IVT=     2237446 IEndB=     2237446 NGot=  3758096384 MDV=  3756612601
 LenX=  3756612601 LenY=  3755875579
 Requested convergence on RMS density matrix=1.00D-08 within 128 cycles.
 Requested convergence on MAX density matrix=1.00D-06.
 Requested convergence on             energy=1.00D-06.
 No special actions if energy rises.
 Fock matrices will be formed incrementally for  20 cycles.

 Cycle   1  Pass 1  IDiag  1:
 FoFJK:  IHMeth= 1 ICntrl=       0 DoSepK=T KAlg= 0 I1Cent=   0 FoldK=F
 IRaf=         1 NMat=   1 IRICut=       1 DoRegI=T DoRafI=F ISym2E= 0.
 FoFCou: FMM=F IPFlag=           0 FMFlag=      100000 FMFlg1=           0
         NFxFlg=           0 DoJE=T BraDBF=F KetDBF=F FulRan=T
         wScrn=  0.000000 ICntrl=     500 IOpCl=  0 I1Cent=           0 NGrid=           0
         NMat0=    1 NMatS0=      1 NMatT0=    0 NMatD0=    1 NMtDS0=    0 NMtDT0=    0
 Symmetry not used in FoFCou.
 E= -1462.08957680009    
 DIIS: error= 7.38D-02 at cycle   1 NSaved=   1.
 NSaved= 1 IEnMin= 1 EnMin= -1462.08957680009     IErMin= 1 ErrMin= 7.38D-02
 ErrMax= 7.38D-02  0.00D+00 EMaxC= 1.00D-01 BMatC= 3.51D+00 BMatP= 3.51D+00
 IDIUse=3 WtCom= 2.62D-01 WtEn= 7.38D-01
 Coeff-Com:  0.100D+01
 Coeff-En:   0.100D+01
 Coeff:      0.100D+01
 Gap=     0.298 Goal=   None    Shift=    0.000
 GapD=    0.298 DampG=1.000 DampE=0.500 DampFc=0.5000 IDamp=-1.
 Damping current iteration by 5.00D-01
 RMSDP=2.81D-02 MaxDP=4.66D+00              OVMax= 1.85D-01

 Cycle   2  Pass 1  IDiag  1:
 RMSU=  5.57D-03    CP:  8.32D-01
 E= -1462.40919768831     Delta-E=       -0.319620888211 Rises=F Damp=T
 DIIS: error= 3.22D-02 at cycle   2 NSaved=   2.
 NSaved= 2 IEnMin= 2 EnMin= -1462.40919768831     IErMin= 2 ErrMin= 3.22D-02
 ErrMax= 3.22D-02  0.00D+00 EMaxC= 1.00D-01 BMatC= 6.42D-01 BMatP= 3.51D+00
 IDIUse=3 WtCom= 6.78D-01 WtEn= 3.22D-01
 Coeff-Com: -0.362D+00 0.136D+01
 Coeff-En:   0.000D+00 0.100D+01
 Coeff:     -0.246D+00 0.125D+01
 Gap=     0.281 Goal=   None    Shift=    0.000
 RMSDP=1.20D-02 MaxDP=1.97D+00 DE=-3.20D-01 OVMax= 1.55D-01

 Cycle   3  Pass 1  IDiag  1:
 RMSU=  7.81D-03    CP:  7.14D-01  1.09D+00
 E= -1462.66161802639     Delta-E=       -0.252420338088 Rises=F Damp=F
 DIIS: error= 1.13D-02 at cycle   3 NSaved=   3.
 NSaved= 3 IEnMin= 3 EnMin= -1462.66161802639     IErMin= 3 ErrMin= 1.13D-02
 ErrMax= 1.13D-02  0.00D+00 EMaxC= 1.00D-01 BMatC= 1.83D-01 BMatP= 6.42D-01
 IDIUse=3 WtCom= 8.87D-01 WtEn= 1.13D-01
 Coeff-Com: -0.266D+00 0.591D+00 0.675D+00
 Coeff-En:   0.000D+00 0.000D+00 0.100D+01
 Coeff:     -0.236D+00 0.524D+00 0.712D+00
 Gap=     0.268 Goal=   None    Shift=    0.000
 RMSDP=7.41D-03 MaxDP=8.33D-01 DE=-2.52D-01 OVMax= 6.23D-02

 Cycle   4  Pass 1  IDiag  1:
 RMSU=  2.83D-03    CP:  6.37D-01  1.30D+00  5.79D-01
 E= -1462.77876906420     Delta-E=       -0.117151037808 Rises=F Damp=F
 DIIS: error= 3.24D-03 at cycle   4 NSaved=   4.
 NSaved= 4 IEnMin= 4 EnMin= -1462.77876906420     IErMin= 4 ErrMin= 3.24D-03
 ErrMax= 3.24D-03  0.00D+00 EMaxC= 1.00D-01 BMatC= 1.50D-02 BMatP= 1.83D-01
 IDIUse=3 WtCom= 9.68D-01 WtEn= 3.24D-02
 Coeff-Com: -0.111D+00 0.243D+00 0.386D+00 0.483D+00
 Coeff-En:   0.000D+00 0.000D+00 0.000D+00 0.100D+01
 Coeff:     -0.108D+00 0.235D+00 0.373D+00 0.500D+00
 Gap=     0.260 Goal=   None    Shift=    0.000
 RMSDP=1.67D-03 MaxDP=1.74D-01 DE=-1.17D-01 OVMax= 1.40D-02

 Cycle   5  Pass 1  IDiag  1:
 RMSU=  6.02D-04    CP:  6.53D-01  1.29D+00  6.85D-01  8.00D-01
 E= -1462.78997667493     Delta-E=       -0.011207610728 Rises=F Damp=F
 DIIS: error= 6.63D-04 at cycle   5 NSaved=   5.
 NSaved= 5 IEnMin= 5 EnMin= -1462.78997667493     IErMin= 5 ErrMin= 6.63D-04
 ErrMax= 6.63D-04  0.00D+00 EMaxC= 1.00D-01 BMatC= 3.13D-04 BMatP= 1.50D-02
 IDIUse=3 WtCom= 9.93D-01 WtEn= 6.63D-03
 Coeff-Com: -0.402D-02 0.735D-02 0.547D-01 0.163D+00 0.779D+00
 Coeff-En:   0.000D+00 0.000D+00 0.000D+00 0.000D+00 0.100D+01
 Coeff:     -0.399D-02 0.730D-02 0.543D-01 0.162D+00 0.780D+00
 Gap=     0.260 Goal=   None    Shift=    0.000
 RMSDP=4.94D-04 MaxDP=4.48D-02 DE=-1.12D-02 OVMax= 3.09D-03

 Cycle   6  Pass 1  IDiag  1:
 RMSU=  2.53D-04    CP:  6.51D-01  1.27D+00  6.91D-01  9.33D-01  1.05D+00
 E= -1462.79026320348     Delta-E=       -0.000286528546 Rises=F Damp=F
 DIIS: error= 2.08D-04 at cycle   6 NSaved=   6.
 NSaved= 6 IEnMin= 6 EnMin= -1462.79026320348     IErMin= 6 ErrMin= 2.08D-04
 ErrMax= 2.08D-04  0.00D+00 EMaxC= 1.00D-01 BMatC= 7.44D-05 BMatP= 3.13D-04
 IDIUse=3 WtCom= 9.98D-01 WtEn= 2.08D-03
 Coeff-Com:  0.176D-01-0.387D-01-0.407D-01-0.158D-01 0.370D+00 0.708D+00
 Coeff-En:   0.000D+00 0.000D+00 0.000D+00 0.000D+00 0.000D+00 0.100D+01
 Coeff:      0.176D-01-0.386D-01-0.406D-01-0.158D-01 0.369D+00 0.708D+00
 Gap=     0.261 Goal=   None    Shift=    0.000
 RMSDP=1.44D-04 MaxDP=1.51D-02 DE=-2.87D-04 OVMax= 2.73D-03

 Cycle   7  Pass 1  IDiag  1:
 RMSU=  8.65D-05    CP:  6.50D-01  1.27D+00  6.96D-01  9.61D-01  1.16D+00
                    CP:  1.15D+00
 E= -1462.79034836757     Delta-E=       -0.000085164093 Rises=F Damp=F
 DIIS: error= 6.26D-05 at cycle   7 NSaved=   7.
 NSaved= 7 IEnMin= 7 EnMin= -1462.79034836757     IErMin= 7 ErrMin= 6.26D-05
 ErrMax= 6.26D-05  0.00D+00 EMaxC= 1.00D-01 BMatC= 6.73D-06 BMatP= 7.44D-05
 IDIUse=1 WtCom= 1.00D+00 WtEn= 0.00D+00
 Coeff-Com:  0.590D-02-0.127D-01-0.187D-01-0.235D-01 0.356D-01 0.246D+00
 Coeff-Com:  0.767D+00
 Coeff:      0.590D-02-0.127D-01-0.187D-01-0.235D-01 0.356D-01 0.246D+00
 Coeff:      0.767D+00
 Gap=     0.262 Goal=   None    Shift=    0.000
 RMSDP=7.62D-05 MaxDP=7.51D-03 DE=-8.52D-05 OVMax= 8.99D-04

 Cycle   8  Pass 1  IDiag  1:
 RMSU=  3.85D-05    CP:  6.50D-01  1.27D+00  6.92D-01  9.77D-01  1.21D+00
                    CP:  1.22D+00  9.79D-01
 E= -1462.79035862538     Delta-E=       -0.000010257812 Rises=F Damp=F
 DIIS: error= 3.65D-05 at cycle   8 NSaved=   8.
 NSaved= 8 IEnMin= 8 EnMin= -1462.79035862538     IErMin= 8 ErrMin= 3.65D-05
 ErrMax= 3.65D-05  0.00D+00 EMaxC= 1.00D-01 BMatC= 1.42D-06 BMatP= 6.73D-06
 IDIUse=1 WtCom= 1.00D+00 WtEn= 0.00D+00
 Coeff-Com: -0.338D-03 0.839D-03-0.107D-02-0.708D-02-0.434D-01-0.454D-02
 Coeff-Com:  0.335D+00 0.720D+00
 Coeff:     -0.338D-03 0.839D-03-0.107D-02-0.708D-02-0.434D-01-0.454D-02
 Coeff:      0.335D+00 0.720D+00
 Gap=     0.262 Goal=   None    Shift=    0.000
 RMSDP=2.80D-05 MaxDP=2.49D-03 DE=-1.03D-05 OVMax= 5.89D-04

 Cycle   9  Pass 1  IDiag  1:
 RMSU=  1.67D-05    CP:  6.50D-01  1.27D+00  6.91D-01  9.80D-01  1.23D+00
                    CP:  1.27D+00  1.02D+00  1.03D+00
 E= -1462.79036104427     Delta-E=       -0.000002418885 Rises=F Damp=F
 DIIS: error= 1.06D-05 at cycle   9 NSaved=   9.
 NSaved= 9 IEnMin= 9 EnMin= -1462.79036104427     IErMin= 9 ErrMin= 1.06D-05
 ErrMax= 1.06D-05  0.00D+00 EMaxC= 1.00D-01 BMatC= 2.61D-07 BMatP= 1.42D-06
 IDIUse=1 WtCom= 1.00D+00 WtEn= 0.00D+00
 Coeff-Com: -0.124D-02 0.271D-02 0.346D-02 0.215D-02-0.251D-01-0.484D-01
 Coeff-Com: -0.400D-01 0.256D+00 0.851D+00
 Coeff:     -0.124D-02 0.271D-02 0.346D-02 0.215D-02-0.251D-01-0.484D-01
 Coeff:     -0.400D-01 0.256D+00 0.851D+00
 Gap=     0.262 Goal=   None    Shift=    0.000
 RMSDP=1.61D-05 MaxDP=2.10D-03 DE=-2.42D-06 OVMax= 3.14D-04

 Cycle  10  Pass 1  IDiag  1:
 RMSU=  6.07D-06    CP:  6.50D-01  1.27D+00  6.90D-01  9.81D-01  1.24D+00
                    CP:  1.28D+00  1.04D+00  1.24D+00  1.41D+00
 E= -1462.79036156274     Delta-E=       -0.000000518478 Rises=F Damp=F
 DIIS: error= 5.45D-06 at cycle  10 NSaved=  10.
 NSaved=10 IEnMin=10 EnMin= -1462.79036156274     IErMin=10 ErrMin= 5.45D-06
 ErrMax= 5.45D-06  0.00D+00 EMaxC= 1.00D-01 BMatC= 2.96D-08 BMatP= 2.61D-07
 IDIUse=1 WtCom= 1.00D+00 WtEn= 0.00D+00
 Coeff-Com: -0.170D-03 0.362D-03 0.900D-03 0.155D-02-0.105D-02-0.101D-01
 Coeff-Com: -0.669D-01-0.171D-01 0.265D+00 0.828D+00
 Coeff:     -0.170D-03 0.362D-03 0.900D-03 0.155D-02-0.105D-02-0.101D-01
 Coeff:     -0.669D-01-0.171D-01 0.265D+00 0.828D+00
 Gap=     0.262 Goal=   None    Shift=    0.000
 RMSDP=5.00D-06 MaxDP=6.11D-04 DE=-5.18D-07 OVMax= 1.30D-04

 Cycle  11  Pass 1  IDiag  1:
 RMSU=  2.84D-06    CP:  6.50D-01  1.27D+00  6.90D-01  9.81D-01  1.24D+00
                    CP:  1.28D+00  1.04D+00  1.28D+00  1.56D+00  1.13D+00
 E= -1462.79036162920     Delta-E=       -0.000000066452 Rises=F Damp=F
 DIIS: error= 1.53D-06 at cycle  11 NSaved=  11.
 NSaved=11 IEnMin=11 EnMin= -1462.79036162920     IErMin=11 ErrMin= 1.53D-06
 ErrMax= 1.53D-06  0.00D+00 EMaxC= 1.00D-01 BMatC= 3.75D-09 BMatP= 2.96D-08
 IDIUse=1 WtCom= 1.00D+00 WtEn= 0.00D+00
 Coeff-Com:  0.946D-04-0.208D-03-0.130D-03 0.291D-03 0.288D-02 0.341D-02
 Coeff-Com: -0.175D-01-0.346D-01-0.416D-01 0.247D+00 0.840D+00
 Coeff:      0.946D-04-0.208D-03-0.130D-03 0.291D-03 0.288D-02 0.341D-02
 Coeff:     -0.175D-01-0.346D-01-0.416D-01 0.247D+00 0.840D+00
 Gap=     0.262 Goal=   None    Shift=    0.000
 RMSDP=2.16D-06 MaxDP=2.96D-04 DE=-6.65D-08 OVMax= 5.69D-05

 Cycle  12  Pass 1  IDiag  1:
 RMSU=  6.96D-07    CP:  6.50D-01  1.27D+00  6.90D-01  9.81D-01  1.24D+00
                    CP:  1.28D+00  1.04D+00  1.30D+00  1.62D+00  1.28D+00
                    CP:  1.05D+00
 E= -1462.79036163823     Delta-E=       -0.000000009035 Rises=F Damp=F
 DIIS: error= 7.48D-07 at cycle  12 NSaved=  12.
 NSaved=12 IEnMin=12 EnMin= -1462.79036163823     IErMin=12 ErrMin= 7.48D-07
 ErrMax= 7.48D-07  0.00D+00 EMaxC= 1.00D-01 BMatC= 5.09D-10 BMatP= 3.75D-09
 IDIUse=1 WtCom= 1.00D+00 WtEn= 0.00D+00
 Coeff-Com:  0.302D-04-0.662D-04-0.101D-03-0.372D-04 0.925D-03 0.183D-02
 Coeff-Com:  0.193D-02-0.704D-02-0.436D-01-0.315D-01 0.235D+00 0.842D+00
 Coeff:      0.302D-04-0.662D-04-0.101D-03-0.372D-04 0.925D-03 0.183D-02
 Coeff:      0.193D-02-0.704D-02-0.436D-01-0.315D-01 0.235D+00 0.842D+00
 Gap=     0.262 Goal=   None    Shift=    0.000
 RMSDP=7.30D-07 MaxDP=8.57D-05 DE=-9.03D-09 OVMax= 2.08D-05

 Cycle  13  Pass 1  IDiag  1:
 RMSU=  3.05D-07    CP:  6.50D-01  1.27D+00  6.90D-01  9.81D-01  1.24D+00
                    CP:  1.28D+00  1.04D+00  1.30D+00  1.65D+00  1.30D+00
                    CP:  1.15D+00  1.21D+00
 E= -1462.79036163935     Delta-E=       -0.000000001120 Rises=F Damp=F
 DIIS: error= 2.81D-07 at cycle  13 NSaved=  13.
 NSaved=13 IEnMin=13 EnMin= -1462.79036163935     IErMin=13 ErrMin= 2.81D-07
 ErrMax= 2.81D-07  0.00D+00 EMaxC= 1.00D-01 BMatC= 7.73D-11 BMatP= 5.09D-10
 IDIUse=1 WtCom= 1.00D+00 WtEn= 0.00D+00
 Coeff-Com: -0.286D-05 0.649D-05-0.172D-04-0.515D-04-0.107D-03 0.129D-03
 Coeff-Com:  0.338D-02 0.294D-02-0.605D-02-0.490D-01-0.520D-01 0.270D+00
 Coeff-Com:  0.830D+00
 Coeff:     -0.286D-05 0.649D-05-0.172D-04-0.515D-04-0.107D-03 0.129D-03
 Coeff:      0.338D-02 0.294D-02-0.605D-02-0.490D-01-0.520D-01 0.270D+00
 Coeff:      0.830D+00
 Gap=     0.262 Goal=   None    Shift=    0.000
 RMSDP=2.43D-07 MaxDP=2.91D-05 DE=-1.12D-09 OVMax= 9.33D-06

 Cycle  14  Pass 1  IDiag  1:
 RMSU=  1.12D-07    CP:  6.50D-01  1.27D+00  6.90D-01  9.81D-01  1.24D+00
                    CP:  1.28D+00  1.04D+00  1.30D+00  1.66D+00  1.31D+00
                    CP:  1.17D+00  1.33D+00  1.25D+00
 E= -1462.79036163979     Delta-E=       -0.000000000436 Rises=F Damp=F
 DIIS: error= 1.26D-07 at cycle  14 NSaved=  14.
 NSaved=14 IEnMin=14 EnMin= -1462.79036163979     IErMin=14 ErrMin= 1.26D-07
 ErrMax= 1.26D-07  0.00D+00 EMaxC= 1.00D-01 BMatC= 1.69D-11 BMatP= 7.73D-11
 IDIUse=1 WtCom= 1.00D+00 WtEn= 0.00D+00
 Coeff-Com: -0.360D-05 0.808D-05 0.501D-05-0.142D-04-0.169D-03-0.163D-03
 Coeff-Com:  0.921D-03 0.155D-02 0.431D-02-0.143D-01-0.472D-01-0.140D-01
 Coeff-Com:  0.299D+00 0.770D+00
 Coeff:     -0.360D-05 0.808D-05 0.501D-05-0.142D-04-0.169D-03-0.163D-03
 Coeff:      0.921D-03 0.155D-02 0.431D-02-0.143D-01-0.472D-01-0.140D-01
 Coeff:      0.299D+00 0.770D+00
 Gap=     0.262 Goal=   None    Shift=    0.000
 RMSDP=1.44D-07 MaxDP=1.75D-05 DE=-4.36D-10 OVMax= 3.65D-06

 Cycle  15  Pass 1  IDiag  1:
 RMSU=  3.96D-08    CP:  6.50D-01  1.27D+00  6.90D-01  9.81D-01  1.24D+00
                    CP:  1.28D+00  1.04D+00  1.30D+00  1.66D+00  1.31D+00
                    CP:  1.18D+00  1.35D+00  1.39D+00  1.18D+00
 E= -1462.79036163976     Delta-E=        0.000000000022 Rises=F Damp=F
 DIIS: error= 5.88D-08 at cycle  15 NSaved=  15.
 NSaved=15 IEnMin=14 EnMin= -1462.79036163979     IErMin=15 ErrMin= 5.88D-08
 ErrMax= 5.88D-08  0.00D+00 EMaxC= 1.00D-01 BMatC= 3.84D-12 BMatP= 1.69D-11
 IDIUse=1 WtCom= 1.00D+00 WtEn= 0.00D+00
 Coeff-Com: -0.119D-05 0.258D-05 0.731D-05 0.603D-05-0.595D-04-0.105D-03
 Coeff-Com: -0.356D-03-0.156D-03 0.374D-02 0.418D-02-0.936D-02-0.691D-01
 Coeff-Com: -0.744D-01 0.296D+00 0.850D+00
 Coeff:     -0.119D-05 0.258D-05 0.731D-05 0.603D-05-0.595D-04-0.105D-03
 Coeff:     -0.356D-03-0.156D-03 0.374D-02 0.418D-02-0.936D-02-0.691D-01
 Coeff:     -0.744D-01 0.296D+00 0.850D+00
 Gap=     0.262 Goal=   None    Shift=    0.000
 RMSDP=1.14D-07 MaxDP=1.59D-05 DE= 2.18D-11 OVMax= 2.22D-06

 Cycle  16  Pass 1  IDiag  1:
 RMSU=  2.65D-08    CP:  6.50D-01  1.27D+00  6.90D-01  9.81D-01  1.24D+00
                    CP:  1.28D+00  1.04D+00  1.30D+00  1.66D+00  1.31D+00
                    CP:  1.19D+00  1.36D+00  1.49D+00  1.45D+00  1.18D+00
 E= -1462.79036163971     Delta-E=        0.000000000054 Rises=F Damp=F
 DIIS: error= 2.57D-08 at cycle  16 NSaved=  16.
 NSaved=16 IEnMin=14 EnMin= -1462.79036163979     IErMin=16 ErrMin= 2.57D-08
 ErrMax= 2.57D-08  0.00D+00 EMaxC= 1.00D-01 BMatC= 6.29D-13 BMatP= 3.84D-12
 IDIUse=1 WtCom= 1.00D+00 WtEn= 0.00D+00
 Coeff-Com: -0.115D-06 0.195D-06 0.213D-05 0.468D-05 0.758D-05-0.160D-04
 Coeff-Com: -0.254D-03-0.357D-03 0.718D-03 0.383D-02 0.461D-02-0.181D-01
 Coeff-Com: -0.698D-01-0.470D-01 0.281D+00 0.846D+00
 Coeff:     -0.115D-06 0.195D-06 0.213D-05 0.468D-05 0.758D-05-0.160D-04
 Coeff:     -0.254D-03-0.357D-03 0.718D-03 0.383D-02 0.461D-02-0.181D-01
 Coeff:     -0.698D-01-0.470D-01 0.281D+00 0.846D+00
 Gap=     0.262 Goal=   None    Shift=    0.000
 RMSDP=3.86D-08 MaxDP=6.21D-06 DE= 5.37D-11 OVMax= 7.78D-07

 Cycle  17  Pass 1  IDiag  1:
 RMSU=  1.12D-08    CP:  6.50D-01  1.27D+00  6.90D-01  9.81D-01  1.24D+00
                    CP:  1.28D+00  1.04D+00  1.30D+00  1.66D+00  1.31D+00
                    CP:  1.19D+00  1.36D+00  1.51D+00  1.51D+00  1.39D+00
                    CP:  1.11D+00
 E= -1462.79036163995     Delta-E=       -0.000000000237 Rises=F Damp=F
 DIIS: error= 9.82D-09 at cycle  17 NSaved=  17.
 NSaved=17 IEnMin=17 EnMin= -1462.79036163995     IErMin=17 ErrMin= 9.82D-09
 ErrMax= 9.82D-09  0.00D+00 EMaxC= 1.00D-01 BMatC= 1.49D-13 BMatP= 6.29D-13
 IDIUse=1 WtCom= 1.00D+00 WtEn= 0.00D+00
 Coeff-Com:  0.102D-06-0.235D-06-0.692D-06 0.379D-06 0.158D-04 0.137D-04
 Coeff-Com: -0.147D-04-0.139D-03-0.518D-03 0.731D-03 0.366D-02 0.769D-02
 Coeff-Com: -0.123D-01-0.933D-01-0.709D-01 0.357D+00 0.808D+00
 Coeff:      0.102D-06-0.235D-06-0.692D-06 0.379D-06 0.158D-04 0.137D-04
 Coeff:     -0.147D-04-0.139D-03-0.518D-03 0.731D-03 0.366D-02 0.769D-02
 Coeff:     -0.123D-01-0.933D-01-0.709D-01 0.357D+00 0.808D+00
 Gap=     0.262 Goal=   None    Shift=    0.000
 RMSDP=2.36D-08 MaxDP=3.15D-06 DE=-2.37D-10 OVMax= 3.23D-07

 Cycle  18  Pass 1  IDiag  1:
 RMSU=  3.57D-09    CP:  6.50D-01  1.27D+00  6.90D-01  9.81D-01  1.24D+00
                    CP:  1.28D+00  1.04D+00  1.30D+00  1.66D+00  1.31D+00
                    CP:  1.19D+00  1.36D+00  1.51D+00  1.55D+00  1.46D+00
                    CP:  1.37D+00  1.06D+00
 E= -1462.79036163975     Delta-E=        0.000000000202 Rises=F Damp=F
 DIIS: error= 3.30D-09 at cycle  18 NSaved=  18.
 NSaved=18 IEnMin=17 EnMin= -1462.79036163995     IErMin=18 ErrMin= 3.30D-09
 ErrMax= 3.30D-09  0.00D+00 EMaxC= 1.00D-01 BMatC= 1.14D-14 BMatP= 1.49D-13
 IDIUse=1 WtCom= 1.00D+00 WtEn= 0.00D+00
 Coeff-Com:  0.354D-07-0.774D-07-0.419D-06-0.347D-06 0.495D-05 0.652D-05
 Coeff-Com:  0.216D-04-0.224D-04-0.244D-03-0.105D-03 0.684D-03 0.428D-02
 Coeff-Com:  0.301D-02-0.273D-01-0.457D-01 0.353D-01 0.271D+00 0.759D+00
 Coeff:      0.354D-07-0.774D-07-0.419D-06-0.347D-06 0.495D-05 0.652D-05
 Coeff:      0.216D-04-0.224D-04-0.244D-03-0.105D-03 0.684D-03 0.428D-02
 Coeff:      0.301D-02-0.273D-01-0.457D-01 0.353D-01 0.271D+00 0.759D+00
 Gap=     0.262 Goal=   None    Shift=    0.000
 RMSDP=4.84D-09 MaxDP=8.03D-07 DE= 2.02D-10 OVMax= 6.41D-08

 SCF Done:  E(RwB97XD) =  -1462.79036164     A.U. after   18 cycles
            NFock= 18  Conv=0.48D-08     -V/T= 2.0044
 KE= 1.456314705028D+03 PE=-9.177664919823D+03 EE= 3.380290706180D+03
 Leave Link  502 at Thu Nov  2 22:27:53 2017, MaxMem=  3758096384 cpu:      9268.8
 (Enter /share/apps/gaussian/g09_D01/g09/l801.exe)
 DoSCS=F DFT=T ScalE2(SS,OS)=  1.000000  1.000000
 ExpMin= 3.60D-02 ExpMax= 1.14D+04 ExpMxC= 1.72D+03 IAcc=3 IRadAn=         5 AccDes= 0.00D+00
 HarFok:  IExCor=  205 AccDes= 0.00D+00 IRadAn=         5 IDoV=-2 UseB2=F ITyADJ=14
 ICtDFT= 12500011 ScaDFX=  1.000000  1.000000  1.000000  1.000000
 Largest valence mixing into a core orbital is  5.76D-05
 Largest core mixing into a valence orbital is  1.63D-05
 Range of M.O.s used for correlation:    31   822
 NBasis=   828 NAE=   110 NBE=   110 NFC=    30 NFV=     0
 NROrb=    792 NOA=    80 NOB=    80 NVA=   712 NVB=   712

 **** Warning!!: The largest alpha MO coefficient is  0.15965264D+03

 Leave Link  801 at Thu Nov  2 22:27:53 2017, MaxMem=  3758096384 cpu:         2.1
 (Enter /share/apps/gaussian/g09_D01/g09/l914.exe)
 RHF ground state
 MDV=  3758096384 DFT=T DoStab=F Mixed=T DoRPA=T DoScal=F NonHer=T
 Would need an additional        349931000000 words for in-memory AO integral storage.
 Making orbital integer symmetry assigments:
    16 initial guesses have been made.
 Convergence on wavefunction:    0.001000000000000
 Davidson Disk Diagonalization:  ConvIn= 1.00D-03 SkipCon=T Conv= 1.00D-03.
 Max sub-space:   200 roots to seek:    16 dimension of matrix:       113920
 Iteration     1 Dimension    16 NMult     0 NNew     16
 CISAX will form    16 AO SS matrices at one time.
 NMat=    16 NSing=    16 JSym2X= 0.
 FoFJK:  IHMeth= 1 ICntrl=       0 DoSepK=T KAlg= 0 I1Cent=   0 FoldK=F
 IRaf=         1 NMat=  32 IRICut=       1 DoRegI=T DoRafI=F ISym2E= 0.
 FoFCou: FMM=F IPFlag=           0 FMFlag=      100000 FMFlg1=           0
         NFxFlg=           0 DoJE=F BraDBF=F KetDBF=F FulRan=T
         wScrn=  0.000000 ICntrl=     500 IOpCl=  0 I1Cent=           0 NGrid=           0
         NMat0=   16 NMatS0=     16 NMatT0=    0 NMatD0=   16 NMtDS0=    0 NMtDT0=    0
 Symmetry not used in FoFCou.
 New state      1 was old state      2
 New state      2 was old state      3
 New state      3 was old state      1
 New state      4 was old state      6
 Excitation Energies [eV] at current iteration:
 Root      1 :     4.497391171899418
 Root      2 :     4.565984878943049
 Root      3 :     4.728051447363764
 Root      4 :     5.326008369198669
 Root      5 :     5.376870182027724
 Root      6 :     5.512515845774925
 Root      7 :     5.726179817298438
 Root      8 :     6.091641064679449
 Root      9 :     6.360941481434089
 Root     10 :     6.520886627422628
 Root     11 :     6.561135283494419
 Root     12 :     6.645966017116230
 Root     13 :     6.664155358266605
 Root     14 :     6.849355895135568
 Root     15 :     6.993275514583303
 Root     16 :     7.166236585658132
 Iteration     2 Dimension    24 NMult    16 NNew      8
 CISAX will form     8 AO SS matrices at one time.
 NMat=     8 NSing=     8 JSym2X= 0.
 Root      1 not converged, maximum delta is    0.117617882942203
 Root      2 not converged, maximum delta is    0.066710666734392
 Root      3 not converged, maximum delta is    0.331984094099467
 Root      4 not converged, maximum delta is    0.384506162231189
 Excitation Energies [eV] at current iteration:
 Root      1 :     3.963791530076297   Change is   -0.533599641823120
 Root      2 :     4.014181866530786   Change is   -0.551803012412263
 Root      3 :     4.567265964997836   Change is   -0.160785482365928
 Root      4 :     4.621914355183407   Change is   -0.704094014015262
 Iteration     3 Dimension    32 NMult    24 NNew      8
 CISAX will form     8 AO SS matrices at one time.
 NMat=     8 NSing=     8 JSym2X= 0.
 Root      1 not converged, maximum delta is    0.016111839254298
 Root      2 not converged, maximum delta is    0.018993641301173
 Root      3 not converged, maximum delta is    0.100869930483725
 Root      4 not converged, maximum delta is    0.209259930734625
 Excitation Energies [eV] at current iteration:
 Root      1 :     3.916845387088091   Change is   -0.046946142988206
 Root      2 :     3.962412885856813   Change is   -0.051768980673974
 Root      3 :     4.516924179532685   Change is   -0.050341785465151
 Root      4 :     4.567799388269489   Change is   -0.054114966913917
 Iteration     4 Dimension    40 NMult    32 NNew      8
 CISAX will form     8 AO SS matrices at one time.
 NMat=     8 NSing=     8 JSym2X= 0.
 Root      1 not converged, maximum delta is    0.011537282792017
 Root      2 not converged, maximum delta is    0.011714196977027
 Root      3 not converged, maximum delta is    0.172822925976311
 Root      4 not converged, maximum delta is    0.214809546323393
 Excitation Energies [eV] at current iteration:
 Root      1 :     3.905202520718731   Change is   -0.011642866369361
 Root      2 :     3.950858600276329   Change is   -0.011554285580484
 Root      3 :     4.492761638123618   Change is   -0.024162541409068
 Root      4 :     4.517043519683913   Change is   -0.050755868585576
 Iteration     5 Dimension    48 NMult    40 NNew      8
 CISAX will form     8 AO SS matrices at one time.
 NMat=     8 NSing=     8 JSym2X= 0.
 Root      1 not converged, maximum delta is    0.002631336200022
 Root      2 not converged, maximum delta is    0.003894833608517
 Root      3 not converged, maximum delta is    0.173228862205554
 Root      4 not converged, maximum delta is    0.158914100132801
 Excitation Energies [eV] at current iteration:
 Root      1 :     3.903661628880132   Change is   -0.001540891838599
 Root      2 :     3.949339558488279   Change is   -0.001519041788050
 Root      3 :     4.482468337776590   Change is   -0.010293300347027
 Root      4 :     4.504601411884716   Change is   -0.012442107799197
 Iteration     6 Dimension    56 NMult    48 NNew      8
 CISAX will form     8 AO SS matrices at one time.
 NMat=     8 NSing=     8 JSym2X= 0.
 Root      1 not converged, maximum delta is    0.002256030914950
 Root      2 not converged, maximum delta is    0.002323667669273
 Root      3 not converged, maximum delta is    0.027534723363954
 Root      4 not converged, maximum delta is    0.024803809947264
 Excitation Energies [eV] at current iteration:
 Root      1 :     3.903413417355895   Change is   -0.000248211524236
 Root      2 :     3.949052412841569   Change is   -0.000287145646710
 Root      3 :     4.480206249332678   Change is   -0.002262088443912
 Root      4 :     4.502603744486078   Change is   -0.001997667398638
 Iteration     7 Dimension    64 NMult    56 NNew      8
 CISAX will form     8 AO SS matrices at one time.
 NMat=     8 NSing=     8 JSym2X= 0.
 Root      1 not converged, maximum delta is    0.003947595730947
 Root      2 not converged, maximum delta is    0.004353315488635
 Root      3 not converged, maximum delta is    0.057423707401444
 Root      4 not converged, maximum delta is    0.032249905074867
 Excitation Energies [eV] at current iteration:
 Root      1 :     3.903322900803638   Change is   -0.000090516552257
 Root      2 :     3.948934873558209   Change is   -0.000117539283360
 Root      3 :     4.477540569703384   Change is   -0.002665679629293
 Root      4 :     4.500440017431856   Change is   -0.002163727054221
 Iteration     8 Dimension    72 NMult    64 NNew      8
 CISAX will form     8 AO SS matrices at one time.
 NMat=     8 NSing=     8 JSym2X= 0.
 Root      1 not converged, maximum delta is    0.004712900650481
 Root      2 not converged, maximum delta is    0.006381656794972
 Root      3 not converged, maximum delta is    0.558182917399762
 Root      4 not converged, maximum delta is    0.552748777024402
 Excitation Energies [eV] at current iteration:
 Root      1 :     3.903259799112576   Change is   -0.000063101691062
 Root      2 :     3.948832931853968   Change is   -0.000101941704241
 Root      3 :     4.307791077862919   Change is   -0.169749491840466
 Root      4 :     4.394689083186486   Change is   -0.105750934245371
 Iteration     9 Dimension    80 NMult    72 NNew      8
 CISAX will form     8 AO SS matrices at one time.
 NMat=     8 NSing=     8 JSym2X= 0.
 Root      1 not converged, maximum delta is    0.001605901422811
 Root      2 not converged, maximum delta is    0.002419345769945
 Root      3 not converged, maximum delta is    0.018222596487709
 Root      4 not converged, maximum delta is    0.078675141984086
 Excitation Energies [eV] at current iteration:
 Root      1 :     3.903243053167150   Change is   -0.000016745945426
 Root      2 :     3.948802742369985   Change is   -0.000030189483983
 Root      3 :     4.257330762679886   Change is   -0.050460315183032
 Root      4 :     4.297403299871204   Change is   -0.097285783315281
 Iteration    10 Dimension    88 NMult    80 NNew      8
 CISAX will form     8 AO SS matrices at one time.
 NMat=     8 NSing=     8 JSym2X= 0.
 Root      1 has converged.
 Root      2 has converged.
 Root      3 not converged, maximum delta is    0.008402935268137
 Root      4 not converged, maximum delta is    0.036471467408995
 Excitation Energies [eV] at current iteration:
 Root      1 :     3.903240556360232   Change is   -0.000002496806918
 Root      2 :     3.948798225483966   Change is   -0.000004516886019
 Root      3 :     4.252474572554257   Change is   -0.004856190125630
 Root      4 :     4.277980122741258   Change is   -0.019423177129946
 Iteration    11 Dimension    92 NMult    88 NNew      4
 CISAX will form     4 AO SS matrices at one time.
 NMat=     4 NSing=     4 JSym2X= 0.
 Root      1 has converged.
 Root      2 has converged.
 Root      3 not converged, maximum delta is    0.002330236616249
 Root      4 not converged, maximum delta is    0.012302274590452
 Excitation Energies [eV] at current iteration:
 Root      1 :     3.903240348996637   Change is   -0.000000207363596
 Root      2 :     3.948797700823104   Change is   -0.000000524660862
 Root      3 :     4.252019049081902   Change is   -0.000455523472355
 Root      4 :     4.274647515548093   Change is   -0.003332607193166
 Iteration    12 Dimension    96 NMult    92 NNew      4
 CISAX will form     4 AO SS matrices at one time.
 NMat=     4 NSing=     4 JSym2X= 0.
 Root      1 has converged.
 Root      2 has converged.
 Root      3 has converged.
 Root      4 not converged, maximum delta is    0.003409004598614
 Excitation Energies [eV] at current iteration:
 Root      1 :     3.903240337506407   Change is   -0.000000011490230
 Root      2 :     3.948797630145423   Change is   -0.000000070677681
 Root      3 :     4.251958268980218   Change is   -0.000060780101684
 Root      4 :     4.274028690995237   Change is   -0.000618824552855
 Iteration    13 Dimension    98 NMult    96 NNew      2
 CISAX will form     2 AO SS matrices at one time.
 NMat=     2 NSing=     2 JSym2X= 0.
 Root      1 has converged.
 Root      2 has converged.
 Root      3 has converged.
 Root      4 not converged, maximum delta is    0.001582198664702
 Excitation Energies [eV] at current iteration:
 Root      1 :     3.903240335051559   Change is   -0.000000002454848
 Root      2 :     3.948797617284628   Change is   -0.000000012860795
 Root      3 :     4.251957511670728   Change is   -0.000000757309490
 Root      4 :     4.273939895414554   Change is   -0.000088795580684
 Iteration    14 Dimension   100 NMult    98 NNew      2
 CISAX will form     2 AO SS matrices at one time.
 NMat=     2 NSing=     2 JSym2X= 0.
 Root      1 has converged.
 Root      2 has converged.
 Root      3 has converged.
 Root      4 has converged.
 Excitation Energies [eV] at current iteration:
 Root      1 :     3.903240334142467   Change is   -0.000000000909091
 Root      2 :     3.948797613165674   Change is   -0.000000004118955
 Root      3 :     4.251957409621498   Change is   -0.000000102049230
 Root      4 :     4.273931163248186   Change is   -0.000008732166368
 Convergence achieved on expansion vectors.
 ***********************************************************************
 Excited states from <AA,BB:AA,BB> singles matrix:
 ***********************************************************************
 
 1PDM for each excited state written to RWF  633
 Ground to excited state transition densities written to RWF  633
 Ground to excited state transition electric dipole moments (Au):
       state          X           Y           Z        Dip. S.      Osc.
         1         0.2482     -0.3565      0.6121      0.5634      0.0539
         2         1.0579      0.0895      3.1152     10.8316      1.0479
         3        -0.0389     -0.0126     -0.2099      0.0457      0.0048
         4        -0.0290     -0.0061     -0.2425      0.0597      0.0062
 Ground to excited state transition velocity dipole moments (Au):
       state          X           Y           Z        Dip. S.      Osc.
         1        -0.0360      0.0533     -0.0863      0.0116      0.0538
         2        -0.1525     -0.0134     -0.4477      0.2239      1.0286
         3         0.0047      0.0019      0.0320      0.0010      0.0045
         4         0.0031      0.0012      0.0373      0.0014      0.0060
 Ground to excited state transition magnetic dipole moments (Au):
       state          X           Y           Z
         1         2.4742      2.1477     -0.7698
         2        14.4223      0.9445     -4.7897
         3        -1.1699      0.1993      0.2456
         4        -1.0092      0.3509      0.0606
 Ground to excited state transition velocity quadrupole moments (Au):
       state          XX          YY          ZZ          XY          XZ          YZ
         1        -1.0206     -3.4110      4.1808      1.5364     -0.2331      2.8991
         2        -1.1261      0.5409     -3.0274      4.7767     -2.3985     13.6571
         3         0.0701     -0.1081     -0.0929     -0.1093      0.2150     -1.0261
         4        -0.0074     -0.0571      0.4796     -0.1060      0.1701     -1.1496
 <0|del|b> * <b|rxdel|0> + <0|del|b> * <b|delr+rdel|0>
 Rotatory Strengths (R) in cgs (10**-40 erg-esu-cm/Gauss)
       state          XX          YY          ZZ    R(velocity)    E-M Angle
         1       149.9463     13.8353    289.3497    151.0437       75.30
         2       -94.7116      2.5899   -236.9874   -109.7030       90.54
         3         9.8025      2.0954      0.2543      4.0507       86.08
         4        -3.3337     -1.1822      2.3876     -0.7094       90.68
 1/2[<0|r|b>*<b|rxdel|0> + (<0|rxdel|b>*<b|r|0>)*]
 Rotatory Strengths (R) in cgs (10**-40 erg-esu-cm/Gauss)
       state          XX          YY          ZZ     R(length)
         1      -434.3099    541.5243    333.2047    146.8064
         2    -10789.3547    -59.7966  10551.4816    -99.2232
         3       -32.1431      1.7802     36.4536      2.0302
         4       -20.7180      1.5140     10.3845     -2.9398
  1/2[<0|del|b>*<b|r|0> + (<0|r|b>*<b|del|0>)*] (Au)
       state          X           Y           Z        Dip. S.   Osc.(frdel)
         1        -0.0089     -0.0190     -0.0528      0.0807      0.0538
         2        -0.1613     -0.0012     -1.3948      1.5573      1.0382
         3        -0.0002      0.0000     -0.0067      0.0069      0.0046
         4        -0.0001      0.0000     -0.0090      0.0091      0.0061

 Excitation energies and oscillator strengths:
 
 Excited state symmetry could not be determined.
 Excited State   1:      Singlet-?Sym    3.9032 eV  317.64 nm  f=0.0539  <S**2>=0.000
     108 ->111        -0.28958
     109 ->111         0.48252
     110 ->111         0.16193
     110 ->112        -0.34080
 This state for optimization and/or second-order correction.
 Total Energy, E(TD-HF/TD-KS) =  -1462.64692019    
 Copying the excited state density for this state as the 1-particle RhoCI density.
 
 Excited state symmetry could not be determined.
 Excited State   2:      Singlet-?Sym    3.9488 eV  313.98 nm  f=1.0479  <S**2>=0.000
     108 ->111        -0.18743
     109 ->111         0.29033
     110 ->112         0.58233
 
 Excited state symmetry could not be determined.
 Excited State   3:      Singlet-?Sym    4.2520 eV  291.59 nm  f=0.0048  <S**2>=0.000
     103 ->111        -0.67762
 
 Excited state symmetry could not be determined.
 Excited State   4:      Singlet-?Sym    4.2739 eV  290.09 nm  f=0.0062  <S**2>=0.000
     105 ->112        -0.67270
 SavETr:  write IOETrn=   770 NScale= 10 NData=  16 NLR=1 NState=    4 LETran=      82.
 Leave Link  914 at Fri Nov  3 01:10:12 2017, MaxMem=  3758096384 cpu:     38530.8
 (Enter /share/apps/gaussian/g09_D01/g09/l601.exe)
 Copying SCF densities to generalized density rwf, IOpCl= 0 IROHF=0.

 **********************************************************************

            Population analysis using the SCF density.

 **********************************************************************

 Alpha  occ. eigenvalues --  -24.81002 -24.80338 -19.25185 -19.24241 -19.23348
 Alpha  occ. eigenvalues --  -19.22222 -14.51881 -14.49780 -10.39479 -10.38554
 Alpha  occ. eigenvalues --  -10.37708 -10.37415 -10.37274 -10.36929 -10.36227
 Alpha  occ. eigenvalues --  -10.36172 -10.35586 -10.35244 -10.34619 -10.33813
 Alpha  occ. eigenvalues --  -10.31757 -10.30780 -10.30130 -10.29897 -10.29595
 Alpha  occ. eigenvalues --  -10.29255 -10.28999 -10.28300 -10.27852 -10.27639
 Alpha  occ. eigenvalues --   -1.31507  -1.30907  -1.16161  -1.14227  -1.12198
 Alpha  occ. eigenvalues --   -1.11125  -1.10224  -1.09022  -0.97090  -0.95552
 Alpha  occ. eigenvalues --   -0.91529  -0.89432  -0.87685  -0.87044  -0.86011
 Alpha  occ. eigenvalues --   -0.85383  -0.84965  -0.83865  -0.82332  -0.80401
 Alpha  occ. eigenvalues --   -0.74780  -0.73196  -0.72185  -0.70632  -0.70527
 Alpha  occ. eigenvalues --   -0.68928  -0.67156  -0.65106  -0.64679  -0.63351
 Alpha  occ. eigenvalues --   -0.62794  -0.62193  -0.61324  -0.60608  -0.60215
 Alpha  occ. eigenvalues --   -0.59706  -0.58733  -0.58418  -0.58300  -0.56884
 Alpha  occ. eigenvalues --   -0.55509  -0.55220  -0.54373  -0.53849  -0.53799
 Alpha  occ. eigenvalues --   -0.53620  -0.53394  -0.53220  -0.52236  -0.52134
 Alpha  occ. eigenvalues --   -0.51681  -0.51494  -0.51456  -0.51339  -0.50618
 Alpha  occ. eigenvalues --   -0.50092  -0.49760  -0.49493  -0.49339  -0.48490
 Alpha  occ. eigenvalues --   -0.48329  -0.47637  -0.46452  -0.46037  -0.45742
 Alpha  occ. eigenvalues --   -0.44788  -0.43941  -0.43733  -0.42717  -0.42152
 Alpha  occ. eigenvalues --   -0.41380  -0.40852  -0.35447  -0.34218  -0.33523
 Alpha  occ. eigenvalues --   -0.32662  -0.32077  -0.30202  -0.29856  -0.28056
 Alpha virt. eigenvalues --   -0.01887   0.00118   0.01240   0.02936   0.03186
 Alpha virt. eigenvalues --    0.04121   0.04267   0.04649   0.05225   0.05588
 Alpha virt. eigenvalues --    0.05891   0.06230   0.06360   0.06804   0.07075
 Alpha virt. eigenvalues --    0.07155   0.07427   0.07486   0.07861   0.08193
 Alpha virt. eigenvalues --    0.08592   0.08835   0.09301   0.09875   0.10057
 Alpha virt. eigenvalues --    0.10377   0.10948   0.11027   0.11522   0.11663
 Alpha virt. eigenvalues --    0.12071   0.12118   0.12384   0.12844   0.12975
 Alpha virt. eigenvalues --    0.13291   0.13583   0.13594   0.14187   0.14531
 Alpha virt. eigenvalues --    0.14671   0.14839   0.15081   0.15276   0.15728
 Alpha virt. eigenvalues --    0.16097   0.16303   0.16353   0.16437   0.16676
 Alpha virt. eigenvalues --    0.16885   0.17129   0.17318   0.17396   0.17530
 Alpha virt. eigenvalues --    0.17883   0.18044   0.18262   0.18466   0.18608
 Alpha virt. eigenvalues --    0.18775   0.19061   0.19350   0.19533   0.19936
 Alpha virt. eigenvalues --    0.20099   0.20218   0.20410   0.20580   0.20896
 Alpha virt. eigenvalues --    0.21098   0.21230   0.21433   0.21740   0.21839
 Alpha virt. eigenvalues --    0.21933   0.22078   0.22634   0.22879   0.22968
 Alpha virt. eigenvalues --    0.23162   0.23211   0.23570   0.23791   0.23931
 Alpha virt. eigenvalues --    0.24049   0.24352   0.24736   0.24880   0.24958
 Alpha virt. eigenvalues --    0.25177   0.25333   0.26011   0.26208   0.26396
 Alpha virt. eigenvalues --    0.26578   0.26831   0.27100   0.27323   0.27512
 Alpha virt. eigenvalues --    0.27731   0.27846   0.28030   0.28299   0.28455
 Alpha virt. eigenvalues --    0.28760   0.28903   0.29623   0.29759   0.29807
 Alpha virt. eigenvalues --    0.30178   0.30433   0.30731   0.30773   0.31166
 Alpha virt. eigenvalues --    0.31411   0.31726   0.31793   0.32117   0.32387
 Alpha virt. eigenvalues --    0.32489   0.32872   0.33410   0.33486   0.33820
 Alpha virt. eigenvalues --    0.33914   0.34257   0.34561   0.34777   0.35450
 Alpha virt. eigenvalues --    0.35493   0.35705   0.35894   0.36083   0.36518
 Alpha virt. eigenvalues --    0.36758   0.37022   0.37275   0.37514   0.37652
 Alpha virt. eigenvalues --    0.37965   0.38087   0.38543   0.38827   0.38951
 Alpha virt. eigenvalues --    0.39158   0.39512   0.39813   0.40012   0.40323
 Alpha virt. eigenvalues --    0.40665   0.40771   0.41157   0.41606   0.41858
 Alpha virt. eigenvalues --    0.41997   0.42269   0.42351   0.42763   0.42941
 Alpha virt. eigenvalues --    0.43073   0.43382   0.43731   0.44289   0.44417
 Alpha virt. eigenvalues --    0.45124   0.45296   0.45391   0.45858   0.46380
 Alpha virt. eigenvalues --    0.46493   0.47016   0.47227   0.47571   0.48315
 Alpha virt. eigenvalues --    0.49118   0.49295   0.49560   0.49928   0.50444
 Alpha virt. eigenvalues --    0.50633   0.50721   0.51348   0.51425   0.51891
 Alpha virt. eigenvalues --    0.52037   0.52776   0.53177   0.54303   0.54495
 Alpha virt. eigenvalues --    0.55154   0.55552   0.56041   0.56542   0.57268
 Alpha virt. eigenvalues --    0.57712   0.58279   0.58558   0.59499   0.59920
 Alpha virt. eigenvalues --    0.60080   0.60566   0.61197   0.61749   0.62751
 Alpha virt. eigenvalues --    0.62962   0.63525   0.64223   0.64636   0.65382
 Alpha virt. eigenvalues --    0.65586   0.65817   0.66545   0.66941   0.67237
 Alpha virt. eigenvalues --    0.67616   0.68129   0.68163   0.68526   0.68665
 Alpha virt. eigenvalues --    0.69224   0.69350   0.69659   0.70125   0.70641
 Alpha virt. eigenvalues --    0.70750   0.71674   0.71826   0.72064   0.72387
 Alpha virt. eigenvalues --    0.72807   0.73050   0.73629   0.74013   0.74426
 Alpha virt. eigenvalues --    0.74679   0.75172   0.75623   0.75905   0.76319
 Alpha virt. eigenvalues --    0.76915   0.77226   0.77369   0.77749   0.78209
 Alpha virt. eigenvalues --    0.78555   0.79057   0.79599   0.79959   0.80204
 Alpha virt. eigenvalues --    0.80382   0.80930   0.81400   0.81828   0.82155
 Alpha virt. eigenvalues --    0.82837   0.83152   0.83389   0.83784   0.84557
 Alpha virt. eigenvalues --    0.85269   0.85432   0.85870   0.86538   0.87239
 Alpha virt. eigenvalues --    0.87638   0.88186   0.88724   0.89225   0.89729
 Alpha virt. eigenvalues --    0.90127   0.90316   0.90697   0.91494   0.93207
 Alpha virt. eigenvalues --    0.93232   0.94354   0.95061   0.95481   0.96477
 Alpha virt. eigenvalues --    0.96798   0.97008   0.97394   0.98128   0.98823
 Alpha virt. eigenvalues --    0.99564   1.00302   1.00780   1.01582   1.02003
 Alpha virt. eigenvalues --    1.02766   1.03102   1.04224   1.04532   1.05296
 Alpha virt. eigenvalues --    1.05763   1.05981   1.06531   1.06941   1.07107
 Alpha virt. eigenvalues --    1.07666   1.08801   1.09340   1.10267   1.10475
 Alpha virt. eigenvalues --    1.10716   1.10984   1.11733   1.12473   1.12796
 Alpha virt. eigenvalues --    1.13271   1.13599   1.14457   1.14894   1.15358
 Alpha virt. eigenvalues --    1.15801   1.16264   1.17072   1.17278   1.17937
 Alpha virt. eigenvalues --    1.18436   1.18970   1.19722   1.20161   1.21277
 Alpha virt. eigenvalues --    1.21306   1.22093   1.22936   1.23250   1.23729
 Alpha virt. eigenvalues --    1.24169   1.24969   1.27252   1.28020   1.28716
 Alpha virt. eigenvalues --    1.29352   1.29766   1.31069   1.32718   1.33778
 Alpha virt. eigenvalues --    1.35041   1.35710   1.36081   1.36316   1.37178
 Alpha virt. eigenvalues --    1.37990   1.38835   1.39099   1.39734   1.40429
 Alpha virt. eigenvalues --    1.41144   1.41819   1.43699   1.44304   1.47375
 Alpha virt. eigenvalues --    1.48509   1.48693   1.49104   1.49923   1.50841
 Alpha virt. eigenvalues --    1.51602   1.53498   1.54230   1.54442   1.54882
 Alpha virt. eigenvalues --    1.55102   1.55627   1.56503   1.56919   1.57623
 Alpha virt. eigenvalues --    1.57921   1.58418   1.59117   1.59418   1.60026
 Alpha virt. eigenvalues --    1.60867   1.60961   1.61769   1.62707   1.62838
 Alpha virt. eigenvalues --    1.63071   1.63469   1.63791   1.64027   1.64441
 Alpha virt. eigenvalues --    1.64874   1.64956   1.65182   1.66221   1.66711
 Alpha virt. eigenvalues --    1.66988   1.67214   1.67396   1.68316   1.69042
 Alpha virt. eigenvalues --    1.69867   1.70223   1.70652   1.71205   1.71902
 Alpha virt. eigenvalues --    1.72385   1.72868   1.73355   1.73688   1.74841
 Alpha virt. eigenvalues --    1.75344   1.75783   1.76263   1.77066   1.77623
 Alpha virt. eigenvalues --    1.77943   1.78544   1.80105   1.80634   1.81264
 Alpha virt. eigenvalues --    1.82171   1.82960   1.83313   1.83506   1.84034
 Alpha virt. eigenvalues --    1.84821   1.85467   1.85883   1.86894   1.87621
 Alpha virt. eigenvalues --    1.87940   1.88369   1.88930   1.90612   1.91512
 Alpha virt. eigenvalues --    1.91983   1.94167   1.96115   1.96959   1.97218
 Alpha virt. eigenvalues --    1.97627   1.98514   1.99474   1.99884   2.00354
 Alpha virt. eigenvalues --    2.01072   2.01466   2.02247   2.02642   2.03617
 Alpha virt. eigenvalues --    2.03954   2.04741   2.05146   2.05674   2.06146
 Alpha virt. eigenvalues --    2.06804   2.07435   2.07773   2.07925   2.08535
 Alpha virt. eigenvalues --    2.08985   2.09568   2.09860   2.10629   2.10828
 Alpha virt. eigenvalues --    2.11873   2.13440   2.15520   2.15767   2.16674
 Alpha virt. eigenvalues --    2.17295   2.17851   2.18305   2.18593   2.19510
 Alpha virt. eigenvalues --    2.19844   2.21233   2.21798   2.22010   2.23374
 Alpha virt. eigenvalues --    2.23475   2.24338   2.25440   2.26766   2.27102
 Alpha virt. eigenvalues --    2.27757   2.29492   2.30005   2.30850   2.31164
 Alpha virt. eigenvalues --    2.34355   2.36434   2.37597   2.38300   2.40294
 Alpha virt. eigenvalues --    2.40562   2.41719   2.42154   2.43053   2.44961
 Alpha virt. eigenvalues --    2.45730   2.48041   2.48466   2.49768   2.50363
 Alpha virt. eigenvalues --    2.50519   2.51303   2.52893   2.53799   2.54280
 Alpha virt. eigenvalues --    2.55637   2.57031   2.57546   2.57876   2.58493
 Alpha virt. eigenvalues --    2.58888   2.60060   2.62322   2.63079   2.64239
 Alpha virt. eigenvalues --    2.65610   2.66512   2.67498   2.67641   2.69110
 Alpha virt. eigenvalues --    2.69865   2.70428   2.71195   2.73322   2.73580
 Alpha virt. eigenvalues --    2.74619   2.76003   2.76848   2.77793   2.77886
 Alpha virt. eigenvalues --    2.78608   2.79893   2.80934   2.82382   2.82486
 Alpha virt. eigenvalues --    2.83491   2.83679   2.84319   2.84643   2.85317
 Alpha virt. eigenvalues --    2.86106   2.86452   2.86842   2.88037   2.88586
 Alpha virt. eigenvalues --    2.89211   2.89335   2.90848   2.91690   2.92040
 Alpha virt. eigenvalues --    2.93215   2.94615   2.95294   2.95369   2.95651
 Alpha virt. eigenvalues --    2.95953   2.97026   2.97510   2.98153   2.99317
 Alpha virt. eigenvalues --    2.99846   3.00463   3.01443   3.03198   3.03810
 Alpha virt. eigenvalues --    3.05077   3.05784   3.07096   3.09665   3.11126
 Alpha virt. eigenvalues --    3.11680   3.12276   3.12913   3.14333   3.15758
 Alpha virt. eigenvalues --    3.17671   3.18164   3.19653   3.20163   3.20435
 Alpha virt. eigenvalues --    3.21683   3.22556   3.23054   3.23256   3.24239
 Alpha virt. eigenvalues --    3.25153   3.28393   3.29575   3.30897   3.31117
 Alpha virt. eigenvalues --    3.32322   3.32930   3.34410   3.36602   3.37087
 Alpha virt. eigenvalues --    3.39570   3.40911   3.42455   3.48008   3.48897
 Alpha virt. eigenvalues --    3.52069   3.52563   3.54798   3.57223   3.57513
 Alpha virt. eigenvalues --    3.58575   3.62573   3.63434   3.65253   3.67114
 Alpha virt. eigenvalues --    3.67873   3.68298   3.68614   3.71124   3.71913
 Alpha virt. eigenvalues --    3.74051   3.76726   3.77330   3.78693   3.79032
 Alpha virt. eigenvalues --    3.81170   3.81774   3.81994   3.82324   3.83227
 Alpha virt. eigenvalues --    3.86184   3.87159   3.89532   3.89565   3.89759
 Alpha virt. eigenvalues --    3.91255   3.92409   3.92432   3.95268   3.96850
 Alpha virt. eigenvalues --    3.98927   4.02172   4.03820   4.06660   4.06921
 Alpha virt. eigenvalues --    4.06979   4.12245   4.13055   4.14273   4.17487
 Alpha virt. eigenvalues --    4.18752   4.20728   4.21002   4.28156   4.29223
 Alpha virt. eigenvalues --    4.32429   4.33141   4.39276   4.41835   4.62354
 Alpha virt. eigenvalues --    4.64631   4.91492   4.92467   4.92617   4.94804
 Alpha virt. eigenvalues --    4.96177   4.97312   5.15382   5.17690   5.18325
 Alpha virt. eigenvalues --    5.18735   5.21131   5.23934   5.37050   5.39489
 Alpha virt. eigenvalues --    5.67311   5.68113   5.86701   5.88257   5.97789
 Alpha virt. eigenvalues --    5.99523   6.46177   6.54617   6.58089   6.60381
 Alpha virt. eigenvalues --    6.84813   6.87570  23.71174  23.74630  23.90897
 Alpha virt. eigenvalues --   23.93636  23.99926  24.02409  24.03022  24.04229
 Alpha virt. eigenvalues --   24.04295  24.04813  24.05252  24.05884  24.07377
 Alpha virt. eigenvalues --   24.08441  24.14079  24.15025  24.21336  24.22269
 Alpha virt. eigenvalues --   24.22755  24.24341  24.29723  24.30715  35.67145
 Alpha virt. eigenvalues --   35.70356  50.13734  50.15197  50.18584  50.20130
 Alpha virt. eigenvalues --   66.96141  66.99666
          Condensed to atoms (all electrons):
 Mulliken charges:
               1
     1  C   -0.413990
     2  H    0.131254
     3  H    0.201263
     4  H    0.258511
     5  N    0.227132
     6  C   -0.401606
     7  C    0.275880
     8  H    0.174310
     9  H    0.214012
    10  H    0.199149
    11  H    0.254211
    12  C   -0.240497
    13  C   -0.504161
    14  H    0.074934
    15  O   -0.342541
    16  C    1.308881
    17  H    0.399244
    18  C   -0.115730
    19  C   -0.529092
    20  O   -0.311481
    21  C   -0.172856
    22  C   -0.494252
    23  H    0.152996
    24  H    0.262957
    25  C   -0.588514
    26  H    0.243194
    27  F   -0.167226
    28  H    0.195284
    29  C   -0.419831
    30  H    0.217953
    31  H    0.170877
    32  N    0.214668
    33  C   -0.301045
    34  C    0.279248
    35  H    0.145418
    36  H    0.179236
    37  H    0.196850
    38  H    0.237289
    39  C   -0.554113
    40  C   -0.860237
    41  H    0.132469
    42  O   -0.325982
    43  C    0.773612
    44  H    0.380564
    45  C   -0.391678
    46  C    0.109834
    47  O   -0.293265
    48  H    0.114835
    49  C   -0.206885
    50  C   -0.062284
    51  H    0.291258
    52  C   -0.526057
    53  H    0.295317
    54  F   -0.089319
 Sum of Mulliken charges =   0.00000
 Mulliken charges with hydrogens summed into heavy atoms:
               1
     1  C    0.177038
     5  N    0.227132
     6  C    0.185866
     7  C    0.530090
    12  C   -0.165563
    13  C   -0.504161
    15  O   -0.342541
    16  C    1.308881
    18  C   -0.115730
    19  C   -0.376096
    20  O    0.087763
    21  C    0.090101
    22  C   -0.251057
    25  C   -0.588514
    27  F   -0.167226
    29  C    0.164283
    32  N    0.214668
    33  C    0.220460
    34  C    0.516536
    39  C   -0.421644
    40  C   -0.860237
    42  O   -0.325982
    43  C    0.773612
    45  C   -0.276844
    46  C    0.109834
    47  O    0.087299
    49  C    0.084374
    50  C    0.233034
    52  C   -0.526057
    54  F   -0.089319
 Electronic spatial extent (au):  <R**2>=         240544.1837
 Charge=              0.0000 electrons
 Dipole moment (field-independent basis, Debye):
    X=             -6.7034    Y=              0.1274    Z=            -15.8983  Tot=             17.2542
 Quadrupole moment (field-independent basis, Debye-Ang):
   XX=           -209.9612   YY=           -189.0475   ZZ=           -192.8243
   XY=            118.7197   XZ=            -35.2767   YZ=            240.6009
 Traceless Quadrupole moment (field-independent basis, Debye-Ang):
   XX=            -12.6836   YY=              8.2302   ZZ=              4.4534
   XY=            118.7197   XZ=            -35.2767   YZ=            240.6009
 Octapole moment (field-independent basis, Debye-Ang**2):
  XXX=          -1464.5295  YYY=           9303.5666  ZZZ=          -1612.2985  XYY=          -2581.8397
  XXY=           3519.5725  XXZ=           -373.9856  XZZ=           -559.4136  YZZ=           3141.5607
  YYZ=          -3931.0328  XYZ=            537.3986
 Hexadecapole moment (field-independent basis, Debye-Ang**3):
 XXXX=          -9421.0845 YYYY=        -309526.4954 ZZZZ=         -23574.5529 XXXY=          24538.5996
 XXXZ=          -2635.6140 YYYX=          61246.9710 YYYZ=          68983.0461 ZZZX=          -4268.2859
 ZZZY=          26277.6160 XXYY=         -60984.8275 XXZZ=          -5555.6216 YYZZ=         -55152.9812
 XXYZ=           5951.7498 YYXZ=          -9039.5676 ZZXY=           9298.5658
 N-N= 2.878269146975D+03 E-N=-9.177664920251D+03  KE= 1.456314705028D+03
 Leave Link  601 at Fri Nov  3 01:10:12 2017, MaxMem=  3758096384 cpu:         0.6
 (Enter /share/apps/gaussian/g09_D01/g09/l9999.exe)
 1\1\GINC-NXV33\SP\RwB97XD TD-FC\6-311++G(d,p)\C22H24F2N2O4\BTX008\03-N
 ov-2017\0\\#p wb97xd 6-311++G** td=(nstates=4) nosymm\\Title\\0,1\C,0,
 -0.242207,-15.909153,-0.278636\H,0,-0.252468,-14.829358,-0.089876\H,0,
 -1.253355,-16.249934,-0.558167\H,0,0.432188,-16.127813,-1.125854\N,0,0
 .201487,-16.61409,0.916476\C,0,0.261517,-18.068873,0.81116\C,0,0.61709
 4,-15.954241,1.999155\H,0,-0.414204,-18.39745,0.007919\H,0,1.286833,-1
 8.40192,0.563623\H,0,-0.059815,-18.540733,1.749863\H,0,0.583439,-14.86
 3698,1.916064\C,0,1.093579,-16.501219,3.179705\C,0,1.582578,-15.657044
 ,4.219453\H,0,1.130357,-17.580937,3.30476\O,0,1.678535,-14.380108,4.06
 8086\C,0,2.014177,-16.217632,5.523728\H,0,2.344259,-13.947737,5.250035
 \C,0,2.633227,-15.343501,6.475186\C,0,1.798983,-17.554703,5.905478\O,0
 ,2.814705,-14.044646,6.198487\C,0,3.047574,-15.832084,7.726059\C,0,2.1
 8984,-18.047327,7.143848\H,0,1.269384,-18.232931,5.238097\H,0,3.534352
 ,-15.16623,8.441543\C,0,2.813744,-17.16,8.017382\H,0,1.969254,-19.0695
 16,7.451958\F,0,3.199892,-17.627191,9.253681\H,0,1.241451,-14.781049,-
 6.056648\C,0,1.917182,-15.109626,-5.253396\H,0,2.942488,-14.776579,-5.
 500933\H,0,1.595839,-14.637766,-4.314693\N,0,1.857142,-16.564408,-5.14
 808\C,0,1.413453,-17.269346,-6.343196\C,0,2.272759,-17.224258,-4.06540
 1\H,0,1.403192,-18.349141,-6.154426\H,0,0.402315,-16.928565,-6.622727\
 H,0,2.087858,-17.050686,-7.190404\H,0,2.239104,-18.314801,-4.148492\C,
 0,2.749244,-16.67728,-2.884851\C,0,3.238233,-17.521455,-1.845103\H,0,2
 .786011,-15.597562,-2.759796\O,0,3.33419,-18.798391,-1.99647\C,0,3.669
 842,-16.960867,-0.540828\H,0,3.999924,-19.230762,-0.814521\C,0,3.45463
 8,-15.623796,-0.159088\C,0,4.288887,-17.834998,0.410626\O,0,4.470365,-
 19.133853,0.133937\H,0,2.925038,-14.945568,-0.826469\C,0,3.8455,-15.13
 1172,1.079298\C,0,4.703234,-17.346415,1.661499\H,0,3.624914,-14.108983
 ,1.387398\C,0,4.469404,-16.018499,1.952822\H,0,5.190022,-18.012269,2.3
 76983\F,0,4.855562,-15.551308,3.189121\\Version=ES64L-G09RevD.01\HF=-1
 462.7903616\RMSD=4.842e-09\PG=C01 [X(C22H24F2N2O4)]\\@


 One man practicing sportsmanship is far better than 50 preaching it.
 -- Knute K. Rockne
 Job cpu time:       0 days 13 hours 18 minutes 38.7 seconds.
 File lengths (MBytes):  RWF=   1037 Int=      0 D2E=      0 Chk=    113 Scr=      1
 Normal termination of Gaussian 09 at Fri Nov  3 01:10:13 2017.
