 Entering Gaussian System, Link 0=g09
 Input=2hp_2_k846-mega_dimer_2.com
 Output=2hp_2_k846-mega_dimer_2.out
 Initial command:
 /share/apps/gaussian/g09_D01/g09/l1.exe "/tmp/160994.1.all.q/Gau-26488.inp" -scrdir="/tmp/160994.1.all.q/"
 Entering Link 1 = /share/apps/gaussian/g09_D01/g09/l1.exe PID=     26489.
  
 Copyright (c) 1988,1990,1992,1993,1995,1998,2003,2009,2013,
            Gaussian, Inc.  All Rights Reserved.
  
 This is part of the Gaussian(R) 09 program.  It is based on
 the Gaussian(R) 03 system (copyright 2003, Gaussian, Inc.),
 the Gaussian(R) 98 system (copyright 1998, Gaussian, Inc.),
 the Gaussian(R) 94 system (copyright 1995, Gaussian, Inc.),
 the Gaussian 92(TM) system (copyright 1992, Gaussian, Inc.),
 the Gaussian 90(TM) system (copyright 1990, Gaussian, Inc.),
 the Gaussian 88(TM) system (copyright 1988, Gaussian, Inc.),
 the Gaussian 86(TM) system (copyright 1986, Carnegie Mellon
 University), and the Gaussian 82(TM) system (copyright 1983,
 Carnegie Mellon University). Gaussian is a federally registered
 trademark of Gaussian, Inc.
  
 This software contains proprietary and confidential information,
 including trade secrets, belonging to Gaussian, Inc.
  
 This software is provided under written license and may be
 used, copied, transmitted, or stored only in accord with that
 written license.
  
 The following legend is applicable only to US Government
 contracts under FAR:
  
                    RESTRICTED RIGHTS LEGEND
  
 Use, reproduction and disclosure by the US Government is
 subject to restrictions as set forth in subparagraphs (a)
 and (c) of the Commercial Computer Software - Restricted
 Rights clause in FAR 52.227-19.
  
 Gaussian, Inc.
 340 Quinnipiac St., Bldg. 40, Wallingford CT 06492
  
  
 ---------------------------------------------------------------
 Warning -- This program may not be used in any manner that
 competes with the business of Gaussian, Inc. or will provide
 assistance to any competitor of Gaussian, Inc.  The licensee
 of this program is prohibited from giving any competitor of
 Gaussian, Inc. access to this program.  By using this program,
 the user acknowledges that Gaussian, Inc. is engaged in the
 business of creating and licensing software in the field of
 computational chemistry and represents and warrants to the
 licensee that it is not a competitor of Gaussian, Inc. and that
 it will not use this program in any manner prohibited above.
 ---------------------------------------------------------------
  

 Cite this work as:
 Gaussian 09, Revision D.01,
 M. J. Frisch, G. W. Trucks, H. B. Schlegel, G. E. Scuseria, 
 M. A. Robb, J. R. Cheeseman, G. Scalmani, V. Barone, B. Mennucci, 
 G. A. Petersson, H. Nakatsuji, M. Caricato, X. Li, H. P. Hratchian, 
 A. F. Izmaylov, J. Bloino, G. Zheng, J. L. Sonnenberg, M. Hada, 
 M. Ehara, K. Toyota, R. Fukuda, J. Hasegawa, M. Ishida, T. Nakajima, 
 Y. Honda, O. Kitao, H. Nakai, T. Vreven, J. A. Montgomery, Jr., 
 J. E. Peralta, F. Ogliaro, M. Bearpark, J. J. Heyd, E. Brothers, 
 K. N. Kudin, V. N. Staroverov, T. Keith, R. Kobayashi, J. Normand, 
 K. Raghavachari, A. Rendell, J. C. Burant, S. S. Iyengar, J. Tomasi, 
 M. Cossi, N. Rega, J. M. Millam, M. Klene, J. E. Knox, J. B. Cross, 
 V. Bakken, C. Adamo, J. Jaramillo, R. Gomperts, R. E. Stratmann, 
 O. Yazyev, A. J. Austin, R. Cammi, C. Pomelli, J. W. Ochterski, 
 R. L. Martin, K. Morokuma, V. G. Zakrzewski, G. A. Voth, 
 P. Salvador, J. J. Dannenberg, S. Dapprich, A. D. Daniels, 
 O. Farkas, J. B. Foresman, J. V. Ortiz, J. Cioslowski, 
 and D. J. Fox, Gaussian, Inc., Wallingford CT, 2013.
 
 ******************************************
 Gaussian 09:  ES64L-G09RevD.01 24-Apr-2013
                 3-Nov-2017 
 ******************************************
 %chk=2hp_2_k846-mega_dimer_2.chk
 %nproc=4
 Will use up to    4 processors via shared memory.
 %mem=28GB
 ------------------------------------------
 #p wb97xd 6-311++G** td=(nstates=4) nosymm
 ------------------------------------------
 1/38=1/1;
 2/12=2,15=1,17=6,18=5,40=1/2;
 3/5=4,6=6,7=1111,11=9,16=1,25=1,30=1,74=-58/1,2,8,3;
 4//1;
 5/5=2,38=5/2;
 8/6=1,10=2,108=4/1;
 9/41=4,42=1,70=2/14;
 6/7=2,8=2,9=2,10=2/1;
 99/5=1,9=1/99;
 Leave Link    1 at Fri Nov  3 00:03:36 2017, MaxMem=  3758096384 cpu:         0.4
 (Enter /share/apps/gaussian/g09_D01/g09/l101.exe)
 -----
 Title
 -----
 Symbolic Z-matrix:
 Charge =  0 Multiplicity = 1
 C                     0.71127  -10.35207  -4.45507 
 C                     0.52484  -11.68284  -4.13584 
 F                     0.40063  -9.95253  -5.73574 
 C                     1.18753  -9.39963  -3.55425 
 H                     0.13004  -12.39446  -4.86514 
 C                     0.80415  -12.09543  -2.82101 
 C                     1.47896  -9.82964  -2.26586 
 H                     1.30651  -8.35535  -3.84794 
 O                     0.58742  -13.37763  -2.48323 
 C                     1.30239  -11.16437  -1.85418 
 H                     1.83829  -9.08557  -1.55482 
 H                     0.84373  -13.38518  -1.44358 
 C                     1.56619  -11.64245  -0.47724 
 O                     1.29496  -12.8818  -0.21655 
 C                     2.10687  -10.78265   0.52114 
 C                     2.32462  -11.24733   1.80557 
 H                     2.35688  -9.75622   0.26533 
 H                     2.06524  -12.28459   2.03828 
 N                     2.81631  -10.54692   2.8287 
 C                     3.17373  -9.14366   2.68451 
 C                     3.06672  -11.16508   4.12427 
 H                     4.01649  -9.03141   1.98236 
 H                     3.46263  -8.74604   3.66654 
 H                     2.31374  -8.56827   2.30538 
 H                     2.73056  -12.20673   4.09445 
 H                     2.52471  -10.61698   4.91442 
 H                     4.14466  -11.13095   4.35924 
 H                    -2.52471  -11.50202  -4.91442 
 C                    -3.06672  -10.95392  -4.12427 
 H                    -2.73056  -9.91227  -4.09446 
 H                    -4.14465  -10.98805  -4.35925 
 N                    -2.81631  -11.57208  -2.8287 
 C                    -3.17373  -12.97534  -2.68451 
 C                    -2.32462  -10.87167  -1.80557 
 H                    -4.01649  -13.08759  -1.98236 
 H                    -3.46263  -13.37296  -3.66654 
 H                    -2.31374  -13.55073  -2.30539 
 H                    -2.06524  -9.83441  -2.03828 
 C                    -2.10686  -11.33635  -0.52114 
 H                    -2.35687  -12.36278  -0.26534 
 C                    -1.5662   -10.47655   0.47724 
 C                    -1.30239  -10.95462   1.85419 
 O                    -1.29496  -9.2372    0.21654 
 C                    -1.47896  -12.28936   2.26587 
 C                    -0.80415  -10.02357   2.821 
 H                    -0.84374  -8.73382   1.44357 
 H                    -1.8383   -13.03343   1.55481 
 C                    -1.18752  -12.71936   3.55424 
 C                    -0.52484  -10.43616   4.13583 
 O                    -0.58742  -8.74137   2.48323 
 H                    -1.3065   -13.76365   3.84794 
 C                    -0.71127  -11.76693   4.45507 
 H                    -0.13004  -9.72454   4.86514 
 F                    -0.40063  -12.16647   5.73575 
 
 NAtoms=     54 NQM=       54 NQMF=       0 NMMI=      0 NMMIF=      0
                NMic=       0 NMicF=      0.
                    Isotopes and Nuclear Properties:
 (Nuclear quadrupole moments (NQMom) in fm**2, nuclear magnetic moments (NMagM)
  in nuclear magnetons)

  Atom         1           2           3           4           5           6           7           8           9          10
 IAtWgt=          12          12          19          12           1          12          12           1          16          12
 AtmWgt=  12.0000000  12.0000000  18.9984033  12.0000000   1.0078250  12.0000000  12.0000000   1.0078250  15.9949146  12.0000000
 NucSpn=           0           0           1           0           1           0           0           1           0           0
 AtZEff=   0.0000000   0.0000000   0.0000000   0.0000000   0.0000000   0.0000000   0.0000000   0.0000000   0.0000000   0.0000000
 NQMom=    0.0000000   0.0000000   0.0000000   0.0000000   0.0000000   0.0000000   0.0000000   0.0000000   0.0000000   0.0000000
 NMagM=    0.0000000   0.0000000   2.6288670   0.0000000   2.7928460   0.0000000   0.0000000   2.7928460   0.0000000   0.0000000
 AtZNuc=   6.0000000   6.0000000   9.0000000   6.0000000   1.0000000   6.0000000   6.0000000   1.0000000   8.0000000   6.0000000

  Atom        11          12          13          14          15          16          17          18          19          20
 IAtWgt=           1           1          12          16          12          12           1           1          14          12
 AtmWgt=   1.0078250   1.0078250  12.0000000  15.9949146  12.0000000  12.0000000   1.0078250   1.0078250  14.0030740  12.0000000
 NucSpn=           1           1           0           0           0           0           1           1           2           0
 AtZEff=   0.0000000   0.0000000   0.0000000   0.0000000   0.0000000   0.0000000   0.0000000   0.0000000   0.0000000   0.0000000
 NQMom=    0.0000000   0.0000000   0.0000000   0.0000000   0.0000000   0.0000000   0.0000000   0.0000000   2.0440000   0.0000000
 NMagM=    2.7928460   2.7928460   0.0000000   0.0000000   0.0000000   0.0000000   2.7928460   2.7928460   0.4037610   0.0000000
 AtZNuc=   1.0000000   1.0000000   6.0000000   8.0000000   6.0000000   6.0000000   1.0000000   1.0000000   7.0000000   6.0000000

  Atom        21          22          23          24          25          26          27          28          29          30
 IAtWgt=          12           1           1           1           1           1           1           1          12           1
 AtmWgt=  12.0000000   1.0078250   1.0078250   1.0078250   1.0078250   1.0078250   1.0078250   1.0078250  12.0000000   1.0078250
 NucSpn=           0           1           1           1           1           1           1           1           0           1
 AtZEff=   0.0000000   0.0000000   0.0000000   0.0000000   0.0000000   0.0000000   0.0000000   0.0000000   0.0000000   0.0000000
 NQMom=    0.0000000   0.0000000   0.0000000   0.0000000   0.0000000   0.0000000   0.0000000   0.0000000   0.0000000   0.0000000
 NMagM=    0.0000000   2.7928460   2.7928460   2.7928460   2.7928460   2.7928460   2.7928460   2.7928460   0.0000000   2.7928460
 AtZNuc=   6.0000000   1.0000000   1.0000000   1.0000000   1.0000000   1.0000000   1.0000000   1.0000000   6.0000000   1.0000000

  Atom        31          32          33          34          35          36          37          38          39          40
 IAtWgt=           1          14          12          12           1           1           1           1          12           1
 AtmWgt=   1.0078250  14.0030740  12.0000000  12.0000000   1.0078250   1.0078250   1.0078250   1.0078250  12.0000000   1.0078250
 NucSpn=           1           2           0           0           1           1           1           1           0           1
 AtZEff=   0.0000000   0.0000000   0.0000000   0.0000000   0.0000000   0.0000000   0.0000000   0.0000000   0.0000000   0.0000000
 NQMom=    0.0000000   2.0440000   0.0000000   0.0000000   0.0000000   0.0000000   0.0000000   0.0000000   0.0000000   0.0000000
 NMagM=    2.7928460   0.4037610   0.0000000   0.0000000   2.7928460   2.7928460   2.7928460   2.7928460   0.0000000   2.7928460
 AtZNuc=   1.0000000   7.0000000   6.0000000   6.0000000   1.0000000   1.0000000   1.0000000   1.0000000   6.0000000   1.0000000

  Atom        41          42          43          44          45          46          47          48          49          50
 IAtWgt=          12          12          16          12          12           1           1          12          12          16
 AtmWgt=  12.0000000  12.0000000  15.9949146  12.0000000  12.0000000   1.0078250   1.0078250  12.0000000  12.0000000  15.9949146
 NucSpn=           0           0           0           0           0           1           1           0           0           0
 AtZEff=   0.0000000   0.0000000   0.0000000   0.0000000   0.0000000   0.0000000   0.0000000   0.0000000   0.0000000   0.0000000
 NQMom=    0.0000000   0.0000000   0.0000000   0.0000000   0.0000000   0.0000000   0.0000000   0.0000000   0.0000000   0.0000000
 NMagM=    0.0000000   0.0000000   0.0000000   0.0000000   0.0000000   2.7928460   2.7928460   0.0000000   0.0000000   0.0000000
 AtZNuc=   6.0000000   6.0000000   8.0000000   6.0000000   6.0000000   1.0000000   1.0000000   6.0000000   6.0000000   8.0000000

  Atom        51          52          53          54
 IAtWgt=           1          12           1          19
 AtmWgt=   1.0078250  12.0000000   1.0078250  18.9984033
 NucSpn=           1           0           1           1
 AtZEff=   0.0000000   0.0000000   0.0000000   0.0000000
 NQMom=    0.0000000   0.0000000   0.0000000   0.0000000
 NMagM=    2.7928460   0.0000000   2.7928460   2.6288670
 AtZNuc=   1.0000000   6.0000000   1.0000000   9.0000000
 Leave Link  101 at Fri Nov  3 00:03:36 2017, MaxMem=  3758096384 cpu:         0.3
 (Enter /share/apps/gaussian/g09_D01/g09/l202.exe)
 Symmetry turned off by external request.
 Stoichiometry    C22H24F2N2O4
 Framework group  C1[X(C22H24F2N2O4)]
 Deg. of freedom   156
 Full point group                 C1      NOp   1
                          Input orientation:                          
 ---------------------------------------------------------------------
 Center     Atomic      Atomic             Coordinates (Angstroms)
 Number     Number       Type             X           Y           Z
 ---------------------------------------------------------------------
      1          6           0        0.711266  -10.352067   -4.455065
      2          6           0        0.524838  -11.682836   -4.135836
      3          9           0        0.400627   -9.952529   -5.735743
      4          6           0        1.187527   -9.399635   -3.554250
      5          1           0        0.130037  -12.394456   -4.865141
      6          6           0        0.804151  -12.095430   -2.821006
      7          6           0        1.478955   -9.829641   -2.265862
      8          1           0        1.306509   -8.355346   -3.847943
      9          8           0        0.587417  -13.377633   -2.483228
     10          6           0        1.302394  -11.164375   -1.854181
     11          1           0        1.838291   -9.085565   -1.554816
     12          1           0        0.843731  -13.385183   -1.443578
     13          6           0        1.566194  -11.642445   -0.477235
     14          8           0        1.294958  -12.881802   -0.216549
     15          6           0        2.106870  -10.782651    0.521136
     16          6           0        2.324617  -11.247330    1.805567
     17          1           0        2.356875   -9.756222    0.265331
     18          1           0        2.065237  -12.284592    2.038284
     19          7           0        2.816311  -10.546919    2.828701
     20          6           0        3.173727   -9.143661    2.684511
     21          6           0        3.066717  -11.165084    4.124274
     22          1           0        4.016486   -9.031414    1.982362
     23          1           0        3.462633   -8.746043    3.666542
     24          1           0        2.313741   -8.568269    2.305379
     25          1           0        2.730560  -12.206731    4.094450
     26          1           0        2.524709  -10.616978    4.914416
     27          1           0        4.144656  -11.130952    4.359239
     28          1           0       -2.524714  -11.502021   -4.914422
     29          6           0       -3.066723  -10.953915   -4.124270
     30          1           0       -2.730555   -9.912268   -4.094456
     31          1           0       -4.144651  -10.988047   -4.359245
     32          7           0       -2.816307  -11.572080   -2.828697
     33          6           0       -3.173733  -12.975338   -2.684507
     34          6           0       -2.324622  -10.871668   -1.805573
     35          1           0       -4.016491  -13.087585   -1.982358
     36          1           0       -3.462628  -13.372956   -3.666538
     37          1           0       -2.313736  -13.550730   -2.305385
     38          1           0       -2.065242   -9.834406   -2.038281
     39          6           0       -2.106865  -11.336348   -0.521142
     40          1           0       -2.356870  -12.362777   -0.265337
     41          6           0       -1.566199  -10.476554    0.477239
     42          6           0       -1.302389  -10.954624    1.854185
     43          8           0       -1.294964   -9.237197    0.216543
     44          6           0       -1.478960  -12.289358    2.265866
     45          6           0       -0.804146  -10.023569    2.821000
     46          1           0       -0.843736   -8.733816    1.443572
     47          1           0       -1.838296  -13.033434    1.554810
     48          6           0       -1.187522  -12.719364    3.554244
     49          6           0       -0.524843  -10.436163    4.135830
     50          8           0       -0.587422   -8.741366    2.483232
     51          1           0       -1.306504  -13.763653    3.847937
     52          6           0       -0.711271  -11.766932    4.455069
     53          1           0       -0.130043   -9.724543    4.865135
     54          9           0       -0.400633  -12.166470    5.735747
 ---------------------------------------------------------------------
 Rotational constants (GHZ):      0.2550726      0.1039488      0.0899672
 Leave Link  202 at Fri Nov  3 00:03:37 2017, MaxMem=  3758096384 cpu:         0.1
 (Enter /share/apps/gaussian/g09_D01/g09/l301.exe)
 Standard basis: 6-311++G(d,p) (5D, 7F)
 Ernie: Thresh=  0.10000D-02 Tol=  0.10000D-05 Strict=F.
   828 basis functions,  1296 primitive gaussians,   858 cartesian basis functions
   110 alpha electrons      110 beta electrons
       nuclear repulsion energy      3079.2294596185 Hartrees.
 IExCor= 4639 DFT=T Ex+Corr=wB97XD ExCW=0 ScaHFX=  1.000000
 ScaDFX=  1.000000  1.000000  1.000000  1.000000 ScalE2=  1.000000  1.000000
 IRadAn=      0 IRanWt=     -1 IRanGd=            0 ICorTp=0 IEmpDi=121
  HFx wShort=  0.000000 wLong=  0.200000 cFull=  0.222036 cShort=  0.000000 cLong=  0.777964
  DFx wShort=  0.000000 wLong=  0.200000 cFull=  0.000000 cShort=  0.000000 cLong=  1.000000
 NAtoms=   54 NActive=   54 NUniq=   54 SFac= 1.00D+00 NAtFMM=   60 NAOKFM=F Big=F
 Integral buffers will be    131072 words long.
 Raffenetti 1 integral format.
 Two-electron integral symmetry is turned off.
 R6Disp:  Grimme-D2 Dispersion energy=       -0.0494564443 Hartrees.
 Nuclear repulsion after empirical dispersion term =     3079.1800031742 Hartrees.
 Leave Link  301 at Fri Nov  3 00:03:37 2017, MaxMem=  3758096384 cpu:         0.1
 (Enter /share/apps/gaussian/g09_D01/g09/l302.exe)
 NPDir=0 NMtPBC=     1 NCelOv=     1 NCel=       1 NClECP=     1 NCelD=      1
         NCelK=      1 NCelE2=     1 NClLst=     1 CellRange=     0.0.
 One-electron integrals computed using PRISM.
 NBasis=   828 RedAO= T EigKep=  3.69D-06  NBF=   828
 NBsUse=   818 1.00D-06 EigRej=  9.81D-07 NBFU=   818
 Precomputing XC quadrature grid using
 IXCGrd= 4 IRadAn=           0 IRanWt=          -1 IRanGd=           0 AccXCQ= 0.00D+00.
 Generated NRdTot=       0 NPtTot=           0 NUsed=           0 NTot=          32
 NSgBfM=   817   817   817   820   820 MxSgAt=    54 MxSgA2=    54.
 Leave Link  302 at Fri Nov  3 00:03:39 2017, MaxMem=  3758096384 cpu:         8.0
 (Enter /share/apps/gaussian/g09_D01/g09/l308.exe)
 Leave Link  308 at Fri Nov  3 00:03:39 2017, MaxMem=  3758096384 cpu:         0.9
 (Enter /share/apps/gaussian/g09_D01/g09/l303.exe)
 DipDrv:  MaxL=1.
 Leave Link  303 at Fri Nov  3 00:03:40 2017, MaxMem=  3758096384 cpu:         0.5
 (Enter /share/apps/gaussian/g09_D01/g09/l401.exe)
 ExpMin= 3.60D-02 ExpMax= 1.14D+04 ExpMxC= 1.72D+03 IAcc=3 IRadAn=         5 AccDes= 0.00D+00
 Harris functional with IExCor= 4639 and IRadAn=       5 diagonalized for initial guess.
 HarFok:  IExCor= 4639 AccDes= 0.00D+00 IRadAn=         5 IDoV= 1 UseB2=F ITyADJ=14
 ICtDFT=  3500011 ScaDFX=  1.000000  1.000000  1.000000  1.000000
 FoFCou: FMM=F IPFlag=           0 FMFlag=      100000 FMFlg1=           0
         NFxFlg=           0 DoJE=T BraDBF=F KetDBF=T FulRan=T
         wScrn=  0.000000 ICntrl=     500 IOpCl=  0 I1Cent=   200000004 NGrid=           0
         NMat0=    1 NMatS0=      1 NMatT0=    0 NMatD0=    1 NMtDS0=    0 NMtDT0=    0
 Symmetry not used in FoFCou.
 Harris En= -1402.80699320002    
 JPrj=0 DoOrth=F DoCkMO=F.
 Leave Link  401 at Fri Nov  3 00:04:08 2017, MaxMem=  3758096384 cpu:       110.9
 (Enter /share/apps/gaussian/g09_D01/g09/l502.exe)
 Closed shell SCF:
 Using DIIS extrapolation, IDIIS=  1040.
 Two-electron integral symmetry not used.
 IVT=     2237446 IEndB=     2237446 NGot=  3758096384 MDV=  3756612601
 LenX=  3756612601 LenY=  3755875579
 Requested convergence on RMS density matrix=1.00D-08 within 128 cycles.
 Requested convergence on MAX density matrix=1.00D-06.
 Requested convergence on             energy=1.00D-06.
 No special actions if energy rises.
 Fock matrices will be formed incrementally for  20 cycles.

 Cycle   1  Pass 1  IDiag  1:
 FoFJK:  IHMeth= 1 ICntrl=       0 DoSepK=T KAlg= 0 I1Cent=   0 FoldK=F
 IRaf=         1 NMat=   1 IRICut=       1 DoRegI=T DoRafI=F ISym2E= 0.
 FoFCou: FMM=F IPFlag=           0 FMFlag=      100000 FMFlg1=           0
         NFxFlg=           0 DoJE=T BraDBF=F KetDBF=F FulRan=T
         wScrn=  0.000000 ICntrl=     500 IOpCl=  0 I1Cent=           0 NGrid=           0
         NMat0=    1 NMatS0=      1 NMatT0=    0 NMatD0=    1 NMtDS0=    0 NMtDT0=    0
 Symmetry not used in FoFCou.
 E= -1462.10094890143    
 DIIS: error= 6.97D-02 at cycle   1 NSaved=   1.
 NSaved= 1 IEnMin= 1 EnMin= -1462.10094890143     IErMin= 1 ErrMin= 6.97D-02
 ErrMax= 6.97D-02  0.00D+00 EMaxC= 1.00D-01 BMatC= 3.52D+00 BMatP= 3.52D+00
 IDIUse=3 WtCom= 3.03D-01 WtEn= 6.97D-01
 Coeff-Com:  0.100D+01
 Coeff-En:   0.100D+01
 Coeff:      0.100D+01
 Gap=     0.290 Goal=   None    Shift=    0.000
 GapD=    0.290 DampG=1.000 DampE=0.500 DampFc=0.5000 IDamp=-1.
 Damping current iteration by 5.00D-01
 RMSDP=1.31D-02 MaxDP=2.05D+00              OVMax= 1.87D-01

 Cycle   2  Pass 1  IDiag  1:
 RMSU=  2.67D-03    CP:  8.18D-01
 E= -1462.42115921929     Delta-E=       -0.320210317859 Rises=F Damp=T
 DIIS: error= 3.11D-02 at cycle   2 NSaved=   2.
 NSaved= 2 IEnMin= 2 EnMin= -1462.42115921929     IErMin= 2 ErrMin= 3.11D-02
 ErrMax= 3.11D-02  0.00D+00 EMaxC= 1.00D-01 BMatC= 6.43D-01 BMatP= 3.52D+00
 IDIUse=3 WtCom= 6.89D-01 WtEn= 3.11D-01
 Coeff-Com: -0.354D+00 0.135D+01
 Coeff-En:   0.734D-02 0.993D+00
 Coeff:     -0.242D+00 0.124D+01
 Gap=     0.290 Goal=   None    Shift=    0.000
 RMSDP=6.02D-03 MaxDP=6.55D-01 DE=-3.20D-01 OVMax= 1.79D-01

 Cycle   3  Pass 1  IDiag  1:
 RMSU=  3.18D-03    CP:  6.61D-01  8.89D-01
 E= -1462.66657748326     Delta-E=       -0.245418263976 Rises=F Damp=F
 DIIS: error= 1.82D-02 at cycle   3 NSaved=   3.
 NSaved= 3 IEnMin= 3 EnMin= -1462.66657748326     IErMin= 3 ErrMin= 1.82D-02
 ErrMax= 1.82D-02  0.00D+00 EMaxC= 1.00D-01 BMatC= 1.96D-01 BMatP= 6.43D-01
 IDIUse=3 WtCom= 8.18D-01 WtEn= 1.82D-01
 Coeff-Com: -0.268D+00 0.599D+00 0.669D+00
 Coeff-En:   0.000D+00 0.000D+00 0.100D+01
 Coeff:     -0.219D+00 0.490D+00 0.730D+00
 Gap=     0.291 Goal=   None    Shift=    0.000
 RMSDP=3.24D-03 MaxDP=4.74D-01 DE=-2.45D-01 OVMax= 8.36D-02

 Cycle   4  Pass 1  IDiag  1:
 RMSU=  1.12D-03    CP:  5.88D-01  1.43D+00  6.27D-01
 E= -1462.78575258595     Delta-E=       -0.119175102685 Rises=F Damp=F
 DIIS: error= 5.46D-03 at cycle   4 NSaved=   4.
 NSaved= 4 IEnMin= 4 EnMin= -1462.78575258595     IErMin= 4 ErrMin= 5.46D-03
 ErrMax= 5.46D-03  0.00D+00 EMaxC= 1.00D-01 BMatC= 2.82D-02 BMatP= 1.96D-01
 IDIUse=3 WtCom= 9.45D-01 WtEn= 5.46D-02
 Coeff-Com: -0.110D+00 0.241D+00 0.415D+00 0.454D+00
 Coeff-En:   0.000D+00 0.000D+00 0.112D+00 0.888D+00
 Coeff:     -0.104D+00 0.228D+00 0.398D+00 0.478D+00
 Gap=     0.274 Goal=   None    Shift=    0.000
 RMSDP=9.40D-04 MaxDP=1.00D-01 DE=-1.19D-01 OVMax= 2.64D-02

 Cycle   5  Pass 1  IDiag  1:
 RMSU=  3.62D-04    CP:  6.05D-01  1.33D+00  7.54D-01  6.06D-01
 E= -1462.80794255882     Delta-E=       -0.022189972869 Rises=F Damp=F
 DIIS: error= 5.33D-04 at cycle   5 NSaved=   5.
 NSaved= 5 IEnMin= 5 EnMin= -1462.80794255882     IErMin= 5 ErrMin= 5.33D-04
 ErrMax= 5.33D-04  0.00D+00 EMaxC= 1.00D-01 BMatC= 3.29D-04 BMatP= 2.82D-02
 IDIUse=3 WtCom= 9.95D-01 WtEn= 5.33D-03
 Coeff-Com:  0.968D-03-0.329D-02 0.484D-01 0.143D+00 0.811D+00
 Coeff-En:   0.000D+00 0.000D+00 0.000D+00 0.000D+00 0.100D+01
 Coeff:      0.963D-03-0.327D-02 0.481D-01 0.142D+00 0.812D+00
 Gap=     0.273 Goal=   None    Shift=    0.000
 RMSDP=1.94D-04 MaxDP=1.37D-02 DE=-2.22D-02 OVMax= 4.43D-03

 Cycle   6  Pass 1  IDiag  1:
 RMSU=  1.37D-04    CP:  6.02D-01  1.32D+00  7.69D-01  6.84D-01  1.04D+00
 E= -1462.80826112298     Delta-E=       -0.000318564163 Rises=F Damp=F
 DIIS: error= 3.27D-04 at cycle   6 NSaved=   6.
 NSaved= 6 IEnMin= 6 EnMin= -1462.80826112298     IErMin= 6 ErrMin= 3.27D-04
 ErrMax= 3.27D-04  0.00D+00 EMaxC= 1.00D-01 BMatC= 8.10D-05 BMatP= 3.29D-04
 IDIUse=3 WtCom= 9.97D-01 WtEn= 3.27D-03
 Coeff-Com:  0.169D-01-0.373D-01-0.413D-01-0.145D-01 0.387D+00 0.690D+00
 Coeff-En:   0.000D+00 0.000D+00 0.000D+00 0.000D+00 0.000D+00 0.100D+01
 Coeff:      0.169D-01-0.372D-01-0.412D-01-0.145D-01 0.385D+00 0.691D+00
 Gap=     0.274 Goal=   None    Shift=    0.000
 RMSDP=6.18D-05 MaxDP=7.60D-03 DE=-3.19D-04 OVMax= 2.25D-03

 Cycle   7  Pass 1  IDiag  1:
 RMSU=  3.01D-05    CP:  6.01D-01  1.33D+00  7.71D-01  6.94D-01  1.15D+00
                    CP:  1.02D+00
 E= -1462.80834759089     Delta-E=       -0.000086467906 Rises=F Damp=F
 DIIS: error= 7.19D-05 at cycle   7 NSaved=   7.
 NSaved= 7 IEnMin= 7 EnMin= -1462.80834759089     IErMin= 7 ErrMin= 7.19D-05
 ErrMax= 7.19D-05  0.00D+00 EMaxC= 1.00D-01 BMatC= 4.41D-06 BMatP= 8.10D-05
 IDIUse=1 WtCom= 1.00D+00 WtEn= 0.00D+00
 Coeff-Com:  0.442D-02-0.956D-02-0.165D-01-0.205D-01 0.383D-01 0.179D+00
 Coeff-Com:  0.825D+00
 Coeff:      0.442D-02-0.956D-02-0.165D-01-0.205D-01 0.383D-01 0.179D+00
 Coeff:      0.825D+00
 Gap=     0.274 Goal=   None    Shift=    0.000
 RMSDP=2.20D-05 MaxDP=1.18D-03 DE=-8.65D-05 OVMax= 8.71D-04

 Cycle   8  Pass 1  IDiag  1:
 RMSU=  1.34D-05    CP:  6.01D-01  1.33D+00  7.71D-01  6.93D-01  1.19D+00
                    CP:  1.09D+00  1.12D+00
 E= -1462.80835532389     Delta-E=       -0.000007733007 Rises=F Damp=F
 DIIS: error= 4.97D-05 at cycle   8 NSaved=   8.
 NSaved= 8 IEnMin= 8 EnMin= -1462.80835532389     IErMin= 8 ErrMin= 4.97D-05
 ErrMax= 4.97D-05  0.00D+00 EMaxC= 1.00D-01 BMatC= 1.42D-06 BMatP= 4.41D-06
 IDIUse=1 WtCom= 1.00D+00 WtEn= 0.00D+00
 Coeff-Com: -0.543D-03 0.126D-02-0.102D-02-0.733D-02-0.345D-01-0.224D-01
 Coeff-Com:  0.381D+00 0.684D+00
 Coeff:     -0.543D-03 0.126D-02-0.102D-02-0.733D-02-0.345D-01-0.224D-01
 Coeff:      0.381D+00 0.684D+00
 Gap=     0.274 Goal=   None    Shift=    0.000
 RMSDP=8.32D-06 MaxDP=5.81D-04 DE=-7.73D-06 OVMax= 5.54D-04

 Cycle   9  Pass 1  IDiag  1:
 RMSU=  5.77D-06    CP:  6.01D-01  1.33D+00  7.71D-01  6.93D-01  1.20D+00
                    CP:  1.11D+00  1.23D+00  9.98D-01
 E= -1462.80835729892     Delta-E=       -0.000001975025 Rises=F Damp=F
 DIIS: error= 1.41D-05 at cycle   9 NSaved=   9.
 NSaved= 9 IEnMin= 9 EnMin= -1462.80835729892     IErMin= 9 ErrMin= 1.41D-05
 ErrMax= 1.41D-05  0.00D+00 EMaxC= 1.00D-01 BMatC= 2.77D-07 BMatP= 1.42D-06
 IDIUse=1 WtCom= 1.00D+00 WtEn= 0.00D+00
 Coeff-Com: -0.116D-02 0.254D-02 0.312D-02 0.700D-03-0.249D-01-0.499D-01
 Coeff-Com: -0.532D-02 0.300D+00 0.775D+00
 Coeff:     -0.116D-02 0.254D-02 0.312D-02 0.700D-03-0.249D-01-0.499D-01
 Coeff:     -0.532D-02 0.300D+00 0.775D+00
 Gap=     0.274 Goal=   None    Shift=    0.000
 RMSDP=5.06D-06 MaxDP=3.31D-04 DE=-1.98D-06 OVMax= 2.89D-04

 Cycle  10  Pass 1  IDiag  1:
 RMSU=  2.63D-06    CP:  6.01D-01  1.33D+00  7.71D-01  6.93D-01  1.20D+00
                    CP:  1.13D+00  1.31D+00  1.15D+00  1.28D+00
 E= -1462.80835776100     Delta-E=       -0.000000462082 Rises=F Damp=F
 DIIS: error= 9.42D-06 at cycle  10 NSaved=  10.
 NSaved=10 IEnMin=10 EnMin= -1462.80835776100     IErMin=10 ErrMin= 9.42D-06
 ErrMax= 9.42D-06  0.00D+00 EMaxC= 1.00D-01 BMatC= 2.80D-08 BMatP= 2.77D-07
 IDIUse=1 WtCom= 1.00D+00 WtEn= 0.00D+00
 Coeff-Com: -0.148D-03 0.314D-03 0.891D-03 0.119D-02-0.123D-02-0.972D-02
 Coeff-Com: -0.691D-01-0.197D-02 0.244D+00 0.836D+00
 Coeff:     -0.148D-03 0.314D-03 0.891D-03 0.119D-02-0.123D-02-0.972D-02
 Coeff:     -0.691D-01-0.197D-02 0.244D+00 0.836D+00
 Gap=     0.274 Goal=   None    Shift=    0.000
 RMSDP=2.03D-06 MaxDP=2.25D-04 DE=-4.62D-07 OVMax= 1.68D-04

 Cycle  11  Pass 1  IDiag  1:
 RMSU=  1.09D-06    CP:  6.01D-01  1.33D+00  7.71D-01  6.93D-01  1.20D+00
                    CP:  1.13D+00  1.33D+00  1.19D+00  1.43D+00  1.18D+00
 E= -1462.80835783388     Delta-E=       -0.000000072882 Rises=F Damp=F
 DIIS: error= 2.41D-06 at cycle  11 NSaved=  11.
 NSaved=11 IEnMin=11 EnMin= -1462.80835783388     IErMin=11 ErrMin= 2.41D-06
 ErrMax= 2.41D-06  0.00D+00 EMaxC= 1.00D-01 BMatC= 5.07D-09 BMatP= 2.80D-08
 IDIUse=1 WtCom= 1.00D+00 WtEn= 0.00D+00
 Coeff-Com:  0.907D-04-0.200D-03-0.926D-04 0.316D-03 0.293D-02 0.367D-02
 Coeff-Com: -0.225D-01-0.394D-01-0.590D-01 0.268D+00 0.846D+00
 Coeff:      0.907D-04-0.200D-03-0.926D-04 0.316D-03 0.293D-02 0.367D-02
 Coeff:     -0.225D-01-0.394D-01-0.590D-01 0.268D+00 0.846D+00
 Gap=     0.274 Goal=   None    Shift=    0.000
 RMSDP=9.03D-07 MaxDP=5.28D-05 DE=-7.29D-08 OVMax= 6.87D-05

 Cycle  12  Pass 1  IDiag  1:
 RMSU=  3.78D-07    CP:  6.01D-01  1.33D+00  7.71D-01  6.93D-01  1.20D+00
                    CP:  1.13D+00  1.34D+00  1.22D+00  1.50D+00  1.32D+00
                    CP:  1.29D+00
 E= -1462.80835784602     Delta-E=       -0.000000012136 Rises=F Damp=F
 DIIS: error= 1.34D-06 at cycle  12 NSaved=  12.
 NSaved=12 IEnMin=12 EnMin= -1462.80835784602     IErMin=12 ErrMin= 1.34D-06
 ErrMax= 1.34D-06  0.00D+00 EMaxC= 1.00D-01 BMatC= 7.65D-10 BMatP= 5.07D-09
 IDIUse=1 WtCom= 1.00D+00 WtEn= 0.00D+00
 Coeff-Com:  0.397D-04-0.867D-04-0.118D-03-0.852D-05 0.128D-02 0.251D-02
 Coeff-Com:  0.106D-02-0.117D-01-0.542D-01-0.120D-01 0.301D+00 0.772D+00
 Coeff:      0.397D-04-0.867D-04-0.118D-03-0.852D-05 0.128D-02 0.251D-02
 Coeff:      0.106D-02-0.117D-01-0.542D-01-0.120D-01 0.301D+00 0.772D+00
 Gap=     0.274 Goal=   None    Shift=    0.000
 RMSDP=2.97D-07 MaxDP=2.02D-05 DE=-1.21D-08 OVMax= 2.68D-05

 Cycle  13  Pass 1  IDiag  1:
 RMSU=  1.68D-07    CP:  6.01D-01  1.33D+00  7.71D-01  6.93D-01  1.20D+00
                    CP:  1.13D+00  1.34D+00  1.22D+00  1.52D+00  1.37D+00
                    CP:  1.39D+00  1.19D+00
 E= -1462.80835784800     Delta-E=       -0.000000001983 Rises=F Damp=F
 DIIS: error= 4.96D-07 at cycle  13 NSaved=  13.
 NSaved=13 IEnMin=13 EnMin= -1462.80835784800     IErMin=13 ErrMin= 4.96D-07
 ErrMax= 4.96D-07  0.00D+00 EMaxC= 1.00D-01 BMatC= 1.70D-10 BMatP= 7.65D-10
 IDIUse=1 WtCom= 1.00D+00 WtEn= 0.00D+00
 Coeff-Com: -0.277D-05 0.617D-05-0.295D-04-0.628D-04-0.680D-04 0.343D-03
 Coeff-Com:  0.475D-02 0.203D-02-0.122D-01-0.610D-01-0.530D-01 0.314D+00
 Coeff-Com:  0.806D+00
 Coeff:     -0.277D-05 0.617D-05-0.295D-04-0.628D-04-0.680D-04 0.343D-03
 Coeff:      0.475D-02 0.203D-02-0.122D-01-0.610D-01-0.530D-01 0.314D+00
 Coeff:      0.806D+00
 Gap=     0.274 Goal=   None    Shift=    0.000
 RMSDP=1.74D-07 MaxDP=9.80D-06 DE=-1.98D-09 OVMax= 1.41D-05

 Cycle  14  Pass 1  IDiag  1:
 RMSU=  6.48D-08    CP:  6.01D-01  1.33D+00  7.71D-01  6.93D-01  1.20D+00
                    CP:  1.13D+00  1.34D+00  1.22D+00  1.53D+00  1.40D+00
                    CP:  1.47D+00  1.37D+00  1.18D+00
 E= -1462.80835784843     Delta-E=       -0.000000000427 Rises=F Damp=F
 DIIS: error= 1.81D-07 at cycle  14 NSaved=  14.
 NSaved=14 IEnMin=14 EnMin= -1462.80835784843     IErMin=14 ErrMin= 1.81D-07
 ErrMax= 1.81D-07  0.00D+00 EMaxC= 1.00D-01 BMatC= 2.53D-11 BMatP= 1.70D-10
 IDIUse=1 WtCom= 1.00D+00 WtEn= 0.00D+00
 Coeff-Com: -0.530D-05 0.118D-04 0.460D-05-0.234D-04-0.222D-03-0.173D-03
 Coeff-Com:  0.145D-02 0.236D-02 0.548D-02-0.184D-01-0.615D-01 0.116D-01
 Coeff-Com:  0.289D+00 0.770D+00
 Coeff:     -0.530D-05 0.118D-04 0.460D-05-0.234D-04-0.222D-03-0.173D-03
 Coeff:      0.145D-02 0.236D-02 0.548D-02-0.184D-01-0.615D-01 0.116D-01
 Coeff:      0.289D+00 0.770D+00
 Gap=     0.274 Goal=   None    Shift=    0.000
 RMSDP=4.55D-08 MaxDP=1.54D-06 DE=-4.27D-10 OVMax= 4.23D-06

 Cycle  15  Pass 1  IDiag  1:
 RMSU=  2.39D-08    CP:  6.01D-01  1.33D+00  7.71D-01  6.93D-01  1.20D+00
                    CP:  1.13D+00  1.34D+00  1.22D+00  1.53D+00  1.40D+00
                    CP:  1.48D+00  1.41D+00  1.31D+00  1.17D+00
 E= -1462.80835784856     Delta-E=       -0.000000000134 Rises=F Damp=F
 DIIS: error= 7.88D-08 at cycle  15 NSaved=  15.
 NSaved=15 IEnMin=15 EnMin= -1462.80835784856     IErMin=15 ErrMin= 7.88D-08
 ErrMax= 7.88D-08  0.00D+00 EMaxC= 1.00D-01 BMatC= 3.74D-12 BMatP= 2.53D-11
 IDIUse=1 WtCom= 1.00D+00 WtEn= 0.00D+00
 Coeff-Com: -0.946D-06 0.204D-05 0.744D-05 0.518D-05-0.622D-04-0.815D-04
 Coeff-Com: -0.551D-03-0.106D-03 0.402D-02 0.498D-02-0.813D-02-0.533D-01
 Coeff-Com: -0.946D-01 0.126D+00 0.102D+01
 Coeff:     -0.946D-06 0.204D-05 0.744D-05 0.518D-05-0.622D-04-0.815D-04
 Coeff:     -0.551D-03-0.106D-03 0.402D-02 0.498D-02-0.813D-02-0.533D-01
 Coeff:     -0.946D-01 0.126D+00 0.102D+01
 Gap=     0.274 Goal=   None    Shift=    0.000
 RMSDP=3.28D-08 MaxDP=2.18D-06 DE=-1.34D-10 OVMax= 2.92D-06

 Cycle  16  Pass 1  IDiag  1:
 RMSU=  1.04D-08    CP:  6.01D-01  1.33D+00  7.71D-01  6.93D-01  1.20D+00
                    CP:  1.13D+00  1.34D+00  1.22D+00  1.53D+00  1.40D+00
                    CP:  1.49D+00  1.44D+00  1.39D+00  1.37D+00  1.22D+00
 E= -1462.80835784879     Delta-E=       -0.000000000226 Rises=F Damp=F
 DIIS: error= 3.24D-08 at cycle  16 NSaved=  16.
 NSaved=16 IEnMin=16 EnMin= -1462.80835784879     IErMin=16 ErrMin= 3.24D-08
 ErrMax= 3.24D-08  0.00D+00 EMaxC= 1.00D-01 BMatC= 5.89D-13 BMatP= 3.74D-12
 IDIUse=1 WtCom= 1.00D+00 WtEn= 0.00D+00
 Coeff-Com:  0.737D-07-0.211D-06 0.171D-05 0.427D-05 0.125D-04 0.926D-06
 Coeff-Com: -0.293D-03-0.390D-03 0.530D-03 0.375D-02 0.595D-02-0.889D-02
 Coeff-Com: -0.522D-01-0.904D-01 0.217D+00 0.924D+00
 Coeff:      0.737D-07-0.211D-06 0.171D-05 0.427D-05 0.125D-04 0.926D-06
 Coeff:     -0.293D-03-0.390D-03 0.530D-03 0.375D-02 0.595D-02-0.889D-02
 Coeff:     -0.522D-01-0.904D-01 0.217D+00 0.924D+00
 Gap=     0.274 Goal=   None    Shift=    0.000
 RMSDP=7.86D-09 MaxDP=2.40D-07 DE=-2.26D-10 OVMax= 7.14D-07

 SCF Done:  E(RwB97XD) =  -1462.80835785     A.U. after   16 cycles
            NFock= 16  Conv=0.79D-08     -V/T= 2.0045
 KE= 1.456285813503D+03 PE=-9.579848963951D+03 EE= 3.581574789425D+03
 Leave Link  502 at Fri Nov  3 00:45:13 2017, MaxMem=  3758096384 cpu:      9761.3
 (Enter /share/apps/gaussian/g09_D01/g09/l801.exe)
 DoSCS=F DFT=T ScalE2(SS,OS)=  1.000000  1.000000
 ExpMin= 3.60D-02 ExpMax= 1.14D+04 ExpMxC= 1.72D+03 IAcc=3 IRadAn=         5 AccDes= 0.00D+00
 HarFok:  IExCor=  205 AccDes= 0.00D+00 IRadAn=         5 IDoV=-2 UseB2=F ITyADJ=14
 ICtDFT= 12500011 ScaDFX=  1.000000  1.000000  1.000000  1.000000
 Largest valence mixing into a core orbital is  5.93D-05
 Largest core mixing into a valence orbital is  1.57D-05
 Range of M.O.s used for correlation:    31   818
 NBasis=   828 NAE=   110 NBE=   110 NFC=    30 NFV=     0
 NROrb=    788 NOA=    80 NOB=    80 NVA=   708 NVB=   708

 **** Warning!!: The largest alpha MO coefficient is  0.54464532D+02

 Leave Link  801 at Fri Nov  3 00:45:15 2017, MaxMem=  3758096384 cpu:         6.4
 (Enter /share/apps/gaussian/g09_D01/g09/l914.exe)
 RHF ground state
 MDV=  3758096384 DFT=T DoStab=F Mixed=T DoRPA=T DoScal=F NonHer=T
 Would need an additional        349931000000 words for in-memory AO integral storage.
 Making orbital integer symmetry assigments:
    16 initial guesses have been made.
 Convergence on wavefunction:    0.001000000000000
 Davidson Disk Diagonalization:  ConvIn= 1.00D-03 SkipCon=T Conv= 1.00D-03.
 Max sub-space:   200 roots to seek:    16 dimension of matrix:       113280
 Iteration     1 Dimension    16 NMult     0 NNew     16
 CISAX will form    16 AO SS matrices at one time.
 NMat=    16 NSing=    16 JSym2X= 0.
 FoFJK:  IHMeth= 1 ICntrl=       0 DoSepK=T KAlg= 0 I1Cent=   0 FoldK=F
 IRaf=         1 NMat=  32 IRICut=       1 DoRegI=T DoRafI=F ISym2E= 0.
 FoFCou: FMM=F IPFlag=           0 FMFlag=      100000 FMFlg1=           0
         NFxFlg=           0 DoJE=F BraDBF=F KetDBF=F FulRan=T
         wScrn=  0.000000 ICntrl=     500 IOpCl=  0 I1Cent=           0 NGrid=           0
         NMat0=   16 NMatS0=     16 NMatT0=    0 NMatD0=   16 NMtDS0=    0 NMtDT0=    0
 Symmetry not used in FoFCou.
 New state      3 was old state      4
 New state      4 was old state      3
 Excitation Energies [eV] at current iteration:
 Root      1 :     4.298043874629480
 Root      2 :     4.684613569397961
 Root      3 :     4.767445120348049
 Root      4 :     4.781065424786471
 Root      5 :     5.196328010655178
 Root      6 :     5.273030918667956
 Root      7 :     5.426775644893848
 Root      8 :     5.512928578441585
 Root      9 :     6.032592362517822
 Root     10 :     6.034825915281929
 Root     11 :     6.301150114827441
 Root     12 :     6.315069220958205
 Root     13 :     6.550897765218904
 Root     14 :     6.703752288251673
 Root     15 :     6.912476132244080
 Root     16 :     6.949922935995691
 Iteration     2 Dimension    24 NMult    16 NNew      8
 CISAX will form     8 AO SS matrices at one time.
 NMat=     8 NSing=     8 JSym2X= 0.
 Root      1 not converged, maximum delta is    0.136139151316423
 New state      2 was old state      4
 Root      2 not converged, maximum delta is    0.102701499564070
 New state      3 was old state      2
 Root      3 not converged, maximum delta is    0.072094021244477
 New state      4 was old state      3
 Root      4 not converged, maximum delta is    0.102898906265589
 Excitation Energies [eV] at current iteration:
 Root      1 :     3.803467786206383   Change is   -0.494576088423096
 Root      2 :     4.151495198825976   Change is   -0.629570225960495
 Root      3 :     4.609796897626006   Change is   -0.074816671771956
 Root      4 :     4.633931806605287   Change is   -0.133513313742762
 Iteration     3 Dimension    32 NMult    24 NNew      8
 CISAX will form     8 AO SS matrices at one time.
 NMat=     8 NSing=     8 JSym2X= 0.
 Root      1 not converged, maximum delta is    0.010198035499869
 Root      2 not converged, maximum delta is    0.027477911985647
 New state      3 was old state      4
 Root      3 not converged, maximum delta is    0.166843901778026
 New state      4 was old state      3
 Root      4 not converged, maximum delta is    0.036106371571877
 Excitation Energies [eV] at current iteration:
 Root      1 :     3.770937718447568   Change is   -0.032530067758815
 Root      2 :     4.090672729613642   Change is   -0.060822469212334
 Root      3 :     4.577351118634403   Change is   -0.056580687970885
 Root      4 :     4.602575156236934   Change is   -0.007221741389072
 Iteration     4 Dimension    40 NMult    32 NNew      8
 CISAX will form     8 AO SS matrices at one time.
 NMat=     8 NSing=     8 JSym2X= 0.
 Root      1 not converged, maximum delta is    0.006377839061390
 Root      2 not converged, maximum delta is    0.014011134585325
 Root      3 not converged, maximum delta is    0.135662855916626
 Root      4 not converged, maximum delta is    0.123235474236277
 Excitation Energies [eV] at current iteration:
 Root      1 :     3.764581902811187   Change is   -0.006355815636381
 Root      2 :     4.080367076929539   Change is   -0.010305652684103
 Root      3 :     4.523226969383178   Change is   -0.054124149251224
 Root      4 :     4.595161574306005   Change is   -0.007413581930928
 Iteration     5 Dimension    48 NMult    40 NNew      8
 CISAX will form     8 AO SS matrices at one time.
 NMat=     8 NSing=     8 JSym2X= 0.
 Root      1 not converged, maximum delta is    0.001680564650193
 Root      2 not converged, maximum delta is    0.004169970540057
 New state      3 was old state      4
 Root      3 not converged, maximum delta is    0.408496882988780
 New state      4 was old state      3
 Root      4 not converged, maximum delta is    0.025963707759327
 Excitation Energies [eV] at current iteration:
 Root      1 :     3.763912517192560   Change is   -0.000669385618627
 Root      2 :     4.078626249309859   Change is   -0.001740827619681
 Root      3 :     4.496257977167847   Change is   -0.098903597138159
 Root      4 :     4.509869573664456   Change is   -0.013357395718723
 Iteration     6 Dimension    56 NMult    48 NNew      8
 CISAX will form     8 AO SS matrices at one time.
 NMat=     8 NSing=     8 JSym2X= 0.
 Root      1 not converged, maximum delta is    0.001051874204408
 Root      2 not converged, maximum delta is    0.001817694455141
 Root      3 not converged, maximum delta is    0.031855903156730
 Root      4 not converged, maximum delta is    0.010324126081782
 Excitation Energies [eV] at current iteration:
 Root      1 :     3.763815354191089   Change is   -0.000097163001471
 Root      2 :     4.078362968489246   Change is   -0.000263280820613
 Root      3 :     4.467713512558647   Change is   -0.028544464609200
 Root      4 :     4.507283875012325   Change is   -0.002585698652131
 Iteration     7 Dimension    64 NMult    56 NNew      8
 CISAX will form     8 AO SS matrices at one time.
 NMat=     8 NSing=     8 JSym2X= 0.
 Root      1 not converged, maximum delta is    0.001436079528810
 Root      2 not converged, maximum delta is    0.001453325258546
 Root      3 not converged, maximum delta is    0.019240055555661
 Root      4 not converged, maximum delta is    0.068342359182794
 Excitation Energies [eV] at current iteration:
 Root      1 :     3.763796097467280   Change is   -0.000019256723809
 Root      2 :     4.078311953349655   Change is   -0.000051015139591
 Root      3 :     4.460660835262924   Change is   -0.007052677295723
 Root      4 :     4.502271094385206   Change is   -0.005012780627119
 Iteration     8 Dimension    72 NMult    64 NNew      8
 CISAX will form     8 AO SS matrices at one time.
 NMat=     8 NSing=     8 JSym2X= 0.
 Root      1 not converged, maximum delta is    0.001073496657636
 Root      2 not converged, maximum delta is    0.001711675909723
 New state      3 was old state      4
 Root      3 not converged, maximum delta is    0.409173563380855
 New state      4 was old state      3
 Root      4 not converged, maximum delta is    0.028291234563700
 Excitation Energies [eV] at current iteration:
 Root      1 :     3.763789394861820   Change is   -0.000006702605461
 Root      2 :     4.078290901164205   Change is   -0.000021052185449
 Root      3 :     4.347209327140785   Change is   -0.155061767244421
 Root      4 :     4.458163714656685   Change is   -0.002497120606239
 Iteration     9 Dimension    80 NMult    72 NNew      8
 CISAX will form     8 AO SS matrices at one time.
 NMat=     8 NSing=     8 JSym2X= 0.
 Root      1 has converged.
 Root      2 not converged, maximum delta is    0.003363903256204
 Root      3 not converged, maximum delta is    0.024612618662743
 Root      4 not converged, maximum delta is    0.474136513368171
 Excitation Energies [eV] at current iteration:
 Root      1 :     3.763788491390869   Change is   -0.000000903470951
 Root      2 :     4.078266924196008   Change is   -0.000023976968198
 Root      3 :     4.303298209458125   Change is   -0.043911117682660
 Root      4 :     4.362655806590656   Change is   -0.095507908066029
 Iteration    10 Dimension    86 NMult    80 NNew      6
 CISAX will form     6 AO SS matrices at one time.
 NMat=     6 NSing=     6 JSym2X= 0.
 Root      1 has converged.
 Root      2 not converged, maximum delta is    0.001373364728483
 Root      3 not converged, maximum delta is    0.006546608433530
 Root      4 not converged, maximum delta is    0.047638568802117
 Excitation Energies [eV] at current iteration:
 Root      1 :     3.763788447155654   Change is   -0.000000044235214
 Root      2 :     4.078259113193297   Change is   -0.000007811002710
 Root      3 :     4.298467345012587   Change is   -0.004830864445539
 Root      4 :     4.304686608265306   Change is   -0.057969198325349
 Iteration    11 Dimension    92 NMult    86 NNew      6
 CISAX will form     6 AO SS matrices at one time.
 NMat=     6 NSing=     6 JSym2X= 0.
 Root      1 has converged.
 Root      2 has converged.
 Root      3 not converged, maximum delta is    0.004315623200138
 Root      4 not converged, maximum delta is    0.007523164024855
 Excitation Energies [eV] at current iteration:
 Root      1 :     3.763788445664391   Change is   -0.000000001491264
 Root      2 :     4.078258321621372   Change is   -0.000000791571925
 Root      3 :     4.297495163397912   Change is   -0.000972181614675
 Root      4 :     4.298407150159199   Change is   -0.006279458106107
 Iteration    12 Dimension    96 NMult    92 NNew      4
 CISAX will form     4 AO SS matrices at one time.
 NMat=     4 NSing=     4 JSym2X= 0.
 Root      1 has converged.
 Root      2 has converged.
 Root      3 not converged, maximum delta is    0.006394346844977
 Root      4 not converged, maximum delta is    0.006957970046131
 Excitation Energies [eV] at current iteration:
 Root      1 :     3.763788441750316   Change is   -0.000000003914075
 Root      2 :     4.078258266076544   Change is   -0.000000055544829
 Root      3 :     4.297313764872161   Change is   -0.000181398525751
 Root      4 :     4.297648052312080   Change is   -0.000759097847119
 Iteration    13 Dimension   100 NMult    96 NNew      4
 CISAX will form     4 AO SS matrices at one time.
 NMat=     4 NSing=     4 JSym2X= 0.
 Root      1 has converged.
 Root      2 has converged.
 Root      3 not converged, maximum delta is    0.002206408425881
 Root      4 not converged, maximum delta is    0.002407140318753
 Excitation Energies [eV] at current iteration:
 Root      1 :     3.763788436780981   Change is   -0.000000004969335
 Root      2 :     4.078258265826610   Change is   -0.000000000249933
 Root      3 :     4.297288467453374   Change is   -0.000025297418787
 Root      4 :     4.297560225816651   Change is   -0.000087826495428
 Iteration    14 Dimension   104 NMult   100 NNew      4
 CISAX will form     4 AO SS matrices at one time.
 NMat=     4 NSing=     4 JSym2X= 0.
 Root      1 has converged.
 Root      2 has converged.
 Root      3 has converged.
 Root      4 has converged.
 Excitation Energies [eV] at current iteration:
 Root      1 :     3.763788435734546   Change is   -0.000000001046435
 Root      2 :     4.078258260755145   Change is   -0.000000005071466
 Root      3 :     4.297285803030100   Change is   -0.000002664423274
 Root      4 :     4.297551631213384   Change is   -0.000008594603267
 Convergence achieved on expansion vectors.
 ***********************************************************************
 Excited states from <AA,BB:AA,BB> singles matrix:
 ***********************************************************************
 
 1PDM for each excited state written to RWF  633
 Ground to excited state transition densities written to RWF  633
 Ground to excited state transition electric dipole moments (Au):
       state          X           Y           Z        Dip. S.      Osc.
         1         0.0000      0.0000      0.0000      0.0000      0.0000
         2        -1.0728     -0.5216     -3.0368     10.6451      1.0636
         3        -0.0027     -0.0001     -0.0029      0.0000      0.0000
         4         0.1007      0.0021      0.1068      0.0216      0.0023
 Ground to excited state transition velocity dipole moments (Au):
       state          X           Y           Z        Dip. S.      Osc.
         1         0.0000      0.0000      0.0000      0.0000      0.0000
         2         0.1597      0.0791      0.4515      0.2357      1.0483
         3         0.0005      0.0000      0.0004      0.0000      0.0000
         4        -0.0173      0.0000     -0.0164      0.0006      0.0024
 Ground to excited state transition magnetic dipole moments (Au):
       state          X           Y           Z
         1        -0.2916      2.2138     -0.2923
         2        -9.4369      0.0000      3.3384
         3         0.1646      0.5165     -0.0688
         4         0.3481      0.0137     -0.3628
 Ground to excited state transition velocity quadrupole moments (Au):
       state          XX          YY          ZZ          XY          XZ          YZ
         1        -1.1759      0.2259      0.5924     -0.3083     -1.4625     -0.1195
         2         0.0000     -3.3067      0.0000     -3.3384      0.0000     -9.4369
         3         0.0491      0.0217     -0.0719     -0.0481      0.0276     -0.0173
         4         0.0014     -0.0009     -0.0020      0.3596      0.0007      0.3433
 <0|del|b> * <b|rxdel|0> + <0|del|b> * <b|delr+rdel|0>
 Rotatory Strengths (R) in cgs (10**-40 erg-esu-cm/Gauss)
       state          XX          YY          ZZ    R(velocity)    E-M Angle
         1        -0.0008      0.0011      0.0011      0.0005       90.00
         2        -0.0018     -0.0242      0.0003     -0.0086       90.00
         3        -0.1192      0.1280      0.1796      0.0628       90.00
         4         0.1173     -0.1320     -0.1818     -0.0655       90.00
 1/2[<0|r|b>*<b|rxdel|0> + (<0|rxdel|b>*<b|r|0>)*]
 Rotatory Strengths (R) in cgs (10**-40 erg-esu-cm/Gauss)
       state          XX          YY          ZZ     R(length)
         1        -0.0019      0.0092     -0.0027      0.0015
         2     -7159.1797      0.0060   7169.1819      3.3361
         3         0.3122      0.0207     -0.1390      0.0646
         4       -24.7938     -0.0208     27.4013      0.8622
  1/2[<0|del|b>*<b|r|0> + (<0|r|b>*<b|del|0>)*] (Au)
       state          X           Y           Z        Dip. S.   Osc.(frdel)
         1         0.0000      0.0000      0.0000      0.0000      0.0000
         2        -0.1714     -0.0413     -1.3712      1.5839      1.0559
         3         0.0000      0.0000      0.0000      0.0000      0.0000
         4        -0.0017      0.0000     -0.0018      0.0035      0.0023

 Excitation energies and oscillator strengths:
 
 Excited state symmetry could not be determined.
 Excited State   1:      Singlet-?Sym    3.7638 eV  329.41 nm  f=0.0000  <S**2>=0.000
     109 ->112        -0.35727
     110 ->111         0.58755
 This state for optimization and/or second-order correction.
 Total Energy, E(TD-HF/TD-KS) =  -1462.67004116    
 Copying the excited state density for this state as the 1-particle RhoCI density.
 
 Excited state symmetry could not be determined.
 Excited State   2:      Singlet-?Sym    4.0783 eV  304.01 nm  f=1.0636  <S**2>=0.000
     109 ->111         0.50003
     110 ->112        -0.45108
 
 Excited state symmetry could not be determined.
 Excited State   3:      Singlet-?Sym    4.2973 eV  288.52 nm  f=0.0000  <S**2>=0.000
     103 ->112         0.39758
     104 ->111        -0.51786
     105 ->112         0.17939
 
 Excited state symmetry could not be determined.
 Excited State   4:      Singlet-?Sym    4.2976 eV  288.50 nm  f=0.0023  <S**2>=0.000
     103 ->111        -0.47563
     104 ->112         0.42913
     105 ->111        -0.22230
 SavETr:  write IOETrn=   770 NScale= 10 NData=  16 NLR=1 NState=    4 LETran=      82.
 Leave Link  914 at Fri Nov  3 03:54:27 2017, MaxMem=  3758096384 cpu:     45248.6
 (Enter /share/apps/gaussian/g09_D01/g09/l601.exe)
 Copying SCF densities to generalized density rwf, IOpCl= 0 IROHF=0.

 **********************************************************************

            Population analysis using the SCF density.

 **********************************************************************

 Alpha  occ. eigenvalues --  -24.81945 -24.81945 -19.24577 -19.24577 -19.22901
 Alpha  occ. eigenvalues --  -19.22900 -14.49694 -14.49694 -10.38735 -10.38735
 Alpha  occ. eigenvalues --  -10.38057 -10.38057 -10.36545 -10.36545 -10.35517
 Alpha  occ. eigenvalues --  -10.35517 -10.34011 -10.34011 -10.33500 -10.33500
 Alpha  occ. eigenvalues --  -10.31214 -10.31214 -10.30122 -10.30122 -10.29576
 Alpha  occ. eigenvalues --  -10.29576 -10.29397 -10.29397 -10.27834 -10.27834
 Alpha  occ. eigenvalues --   -1.32497  -1.32497  -1.15200  -1.15162  -1.10866
 Alpha  occ. eigenvalues --   -1.10842  -1.08981  -1.08966  -0.96759  -0.96755
 Alpha  occ. eigenvalues --   -0.89712  -0.89606  -0.87026  -0.86870  -0.85049
 Alpha  occ. eigenvalues --   -0.85035  -0.84781  -0.84774  -0.80556  -0.80509
 Alpha  occ. eigenvalues --   -0.74194  -0.74182  -0.71578  -0.71547  -0.69510
 Alpha  occ. eigenvalues --   -0.69440  -0.65402  -0.65386  -0.63525  -0.63492
 Alpha  occ. eigenvalues --   -0.62950  -0.62887  -0.60627  -0.60589  -0.58894
 Alpha  occ. eigenvalues --   -0.58808  -0.58396  -0.58319  -0.57639  -0.57597
 Alpha  occ. eigenvalues --   -0.55909  -0.55908  -0.54592  -0.54568  -0.53344
 Alpha  occ. eigenvalues --   -0.53238  -0.52276  -0.52202  -0.52023  -0.51453
 Alpha  occ. eigenvalues --   -0.51388  -0.51197  -0.50993  -0.50552  -0.50514
 Alpha  occ. eigenvalues --   -0.50500  -0.49348  -0.49343  -0.49153  -0.49088
 Alpha  occ. eigenvalues --   -0.46817  -0.46737  -0.46535  -0.46314  -0.46091
 Alpha  occ. eigenvalues --   -0.46090  -0.43283  -0.43213  -0.42193  -0.42033
 Alpha  occ. eigenvalues --   -0.41583  -0.41577  -0.34377  -0.34337  -0.34030
 Alpha  occ. eigenvalues --   -0.33679  -0.31094  -0.30916  -0.29129  -0.28457
 Alpha virt. eigenvalues --   -0.01048  -0.00156   0.03316   0.03481   0.04423
 Alpha virt. eigenvalues --    0.04718   0.05163   0.05248   0.05417   0.05798
 Alpha virt. eigenvalues --    0.06074   0.06531   0.06969   0.07213   0.07367
 Alpha virt. eigenvalues --    0.07460   0.07966   0.08316   0.08356   0.08635
 Alpha virt. eigenvalues --    0.08948   0.09139   0.09644   0.10634   0.10770
 Alpha virt. eigenvalues --    0.10812   0.11372   0.11514   0.12112   0.12230
 Alpha virt. eigenvalues --    0.12431   0.12956   0.13128   0.13296   0.13609
 Alpha virt. eigenvalues --    0.14215   0.14351   0.14388   0.15059   0.15201
 Alpha virt. eigenvalues --    0.15715   0.15816   0.15938   0.16434   0.16685
 Alpha virt. eigenvalues --    0.16765   0.16804   0.17175   0.17386   0.17397
 Alpha virt. eigenvalues --    0.17659   0.17662   0.17724   0.18129   0.18301
 Alpha virt. eigenvalues --    0.18496   0.18656   0.18663   0.19105   0.19196
 Alpha virt. eigenvalues --    0.19599   0.19754   0.19795   0.20169   0.20477
 Alpha virt. eigenvalues --    0.20877   0.20897   0.21119   0.21374   0.21531
 Alpha virt. eigenvalues --    0.21722   0.21886   0.21944   0.22173   0.22300
 Alpha virt. eigenvalues --    0.22349   0.23011   0.23181   0.23419   0.23464
 Alpha virt. eigenvalues --    0.23940   0.24191   0.24429   0.24474   0.24740
 Alpha virt. eigenvalues --    0.25097   0.25164   0.25316   0.25612   0.25843
 Alpha virt. eigenvalues --    0.26135   0.26347   0.26356   0.26496   0.27234
 Alpha virt. eigenvalues --    0.27266   0.27754   0.27779   0.27985   0.28096
 Alpha virt. eigenvalues --    0.28163   0.28366   0.28894   0.29227   0.29343
 Alpha virt. eigenvalues --    0.29344   0.29982   0.30020   0.30434   0.30712
 Alpha virt. eigenvalues --    0.30939   0.30996   0.31897   0.32105   0.32445
 Alpha virt. eigenvalues --    0.32631   0.32829   0.33051   0.33400   0.33586
 Alpha virt. eigenvalues --    0.33756   0.33896   0.33989   0.34242   0.34520
 Alpha virt. eigenvalues --    0.35360   0.35449   0.35634   0.35984   0.36179
 Alpha virt. eigenvalues --    0.36429   0.36750   0.37115   0.37313   0.37484
 Alpha virt. eigenvalues --    0.37574   0.37623   0.37706   0.37766   0.38601
 Alpha virt. eigenvalues --    0.38722   0.39145   0.39466   0.40046   0.40058
 Alpha virt. eigenvalues --    0.40366   0.40718   0.41003   0.41072   0.41389
 Alpha virt. eigenvalues --    0.42016   0.42332   0.42548   0.42822   0.43372
 Alpha virt. eigenvalues --    0.43646   0.43704   0.43892   0.44542   0.45083
 Alpha virt. eigenvalues --    0.45205   0.45347   0.46207   0.46356   0.46671
 Alpha virt. eigenvalues --    0.46807   0.47288   0.47606   0.48107   0.48462
 Alpha virt. eigenvalues --    0.48818   0.49013   0.49441   0.50051   0.50230
 Alpha virt. eigenvalues --    0.50491   0.51409   0.51650   0.51963   0.52161
 Alpha virt. eigenvalues --    0.52866   0.53088   0.53722   0.54898   0.55128
 Alpha virt. eigenvalues --    0.55394   0.56233   0.56336   0.56980   0.57205
 Alpha virt. eigenvalues --    0.57629   0.58185   0.58439   0.58706   0.59515
 Alpha virt. eigenvalues --    0.60100   0.60769   0.61762   0.62096   0.62576
 Alpha virt. eigenvalues --    0.62824   0.63012   0.64281   0.64961   0.65852
 Alpha virt. eigenvalues --    0.66864   0.67310   0.67348   0.67703   0.67954
 Alpha virt. eigenvalues --    0.68110   0.68224   0.69261   0.69278   0.69827
 Alpha virt. eigenvalues --    0.70058   0.70333   0.70593   0.70855   0.71370
 Alpha virt. eigenvalues --    0.71750   0.71802   0.72030   0.72615   0.72714
 Alpha virt. eigenvalues --    0.73882   0.74437   0.74815   0.75245   0.75283
 Alpha virt. eigenvalues --    0.75870   0.76311   0.76853   0.77164   0.77591
 Alpha virt. eigenvalues --    0.78194   0.78438   0.78800   0.79011   0.79296
 Alpha virt. eigenvalues --    0.79738   0.80869   0.81108   0.81156   0.81301
 Alpha virt. eigenvalues --    0.81531   0.81687   0.82454   0.82484   0.83521
 Alpha virt. eigenvalues --    0.83721   0.84424   0.84621   0.84726   0.85822
 Alpha virt. eigenvalues --    0.86048   0.86114   0.86312   0.86647   0.87240
 Alpha virt. eigenvalues --    0.87341   0.88534   0.89102   0.89189   0.89536
 Alpha virt. eigenvalues --    0.89921   0.90505   0.91962   0.92619   0.94186
 Alpha virt. eigenvalues --    0.94194   0.95103   0.95961   0.96189   0.96443
 Alpha virt. eigenvalues --    0.97482   0.98250   0.98405   0.98639   1.00102
 Alpha virt. eigenvalues --    1.00687   1.01316   1.01689   1.01815   1.02951
 Alpha virt. eigenvalues --    1.03230   1.03456   1.04600   1.05123   1.05651
 Alpha virt. eigenvalues --    1.05885   1.06074   1.06285   1.06634   1.07032
 Alpha virt. eigenvalues --    1.07494   1.08650   1.08848   1.10167   1.11526
 Alpha virt. eigenvalues --    1.11731   1.13030   1.13113   1.13569   1.13606
 Alpha virt. eigenvalues --    1.14103   1.14494   1.15148   1.15470   1.15715
 Alpha virt. eigenvalues --    1.16757   1.16998   1.17466   1.17821   1.18440
 Alpha virt. eigenvalues --    1.19457   1.19701   1.20688   1.21885   1.22721
 Alpha virt. eigenvalues --    1.22863   1.23422   1.23803   1.24460   1.25639
 Alpha virt. eigenvalues --    1.26461   1.27226   1.28721   1.28723   1.30541
 Alpha virt. eigenvalues --    1.31295   1.31498   1.32705   1.32931   1.34829
 Alpha virt. eigenvalues --    1.36632   1.37682   1.38359   1.38525   1.39616
 Alpha virt. eigenvalues --    1.41261   1.41817   1.42066   1.43762   1.43999
 Alpha virt. eigenvalues --    1.44709   1.44785   1.46608   1.47023   1.47409
 Alpha virt. eigenvalues --    1.48382   1.48622   1.51146   1.51309   1.51801
 Alpha virt. eigenvalues --    1.51817   1.53286   1.53775   1.54009   1.54290
 Alpha virt. eigenvalues --    1.55951   1.56214   1.56376   1.56501   1.57605
 Alpha virt. eigenvalues --    1.58333   1.58819   1.58871   1.59848   1.60080
 Alpha virt. eigenvalues --    1.60624   1.61298   1.62360   1.62494   1.62717
 Alpha virt. eigenvalues --    1.63120   1.64061   1.64393   1.64560   1.65389
 Alpha virt. eigenvalues --    1.65445   1.65907   1.66121   1.67147   1.67249
 Alpha virt. eigenvalues --    1.67399   1.67976   1.68637   1.68760   1.68979
 Alpha virt. eigenvalues --    1.69814   1.70508   1.71547   1.72525   1.72716
 Alpha virt. eigenvalues --    1.73503   1.73837   1.74079   1.74222   1.75279
 Alpha virt. eigenvalues --    1.75954   1.76010   1.76847   1.77799   1.78443
 Alpha virt. eigenvalues --    1.79055   1.79550   1.79688   1.81311   1.81501
 Alpha virt. eigenvalues --    1.82194   1.82673   1.83567   1.83824   1.85195
 Alpha virt. eigenvalues --    1.85825   1.86386   1.86926   1.87174   1.87927
 Alpha virt. eigenvalues --    1.89396   1.89755   1.90760   1.91034   1.92608
 Alpha virt. eigenvalues --    1.93093   1.93790   1.93967   1.97258   1.98543
 Alpha virt. eigenvalues --    1.98995   2.00137   2.00397   2.00569   2.00901
 Alpha virt. eigenvalues --    2.01190   2.01366   2.02048   2.03459   2.04470
 Alpha virt. eigenvalues --    2.04526   2.04981   2.05019   2.05711   2.06585
 Alpha virt. eigenvalues --    2.07762   2.08034   2.08269   2.08611   2.09580
 Alpha virt. eigenvalues --    2.09890   2.10036   2.10169   2.11399   2.12098
 Alpha virt. eigenvalues --    2.12654   2.12862   2.13194   2.15065   2.16239
 Alpha virt. eigenvalues --    2.17329   2.17733   2.18595   2.18860   2.19918
 Alpha virt. eigenvalues --    2.21671   2.22236   2.23406   2.23748   2.23898
 Alpha virt. eigenvalues --    2.24266   2.24823   2.25088   2.25393   2.27520
 Alpha virt. eigenvalues --    2.28183   2.29026   2.29179   2.31080   2.31404
 Alpha virt. eigenvalues --    2.33869   2.34092   2.37077   2.37864   2.40412
 Alpha virt. eigenvalues --    2.40482   2.40859   2.41059   2.42885   2.43281
 Alpha virt. eigenvalues --    2.45292   2.49000   2.49891   2.49950   2.50610
 Alpha virt. eigenvalues --    2.50696   2.51437   2.52102   2.54894   2.55101
 Alpha virt. eigenvalues --    2.56376   2.56660   2.57767   2.57786   2.58706
 Alpha virt. eigenvalues --    2.59509   2.62766   2.63176   2.64811   2.65349
 Alpha virt. eigenvalues --    2.65839   2.66790   2.67854   2.68197   2.68625
 Alpha virt. eigenvalues --    2.68845   2.71408   2.72260   2.73012   2.73849
 Alpha virt. eigenvalues --    2.74739   2.74784   2.76214   2.77101   2.78467
 Alpha virt. eigenvalues --    2.79189   2.80534   2.80767   2.82556   2.84139
 Alpha virt. eigenvalues --    2.84558   2.85632   2.86239   2.86338   2.86350
 Alpha virt. eigenvalues --    2.87446   2.87574   2.88881   2.89176   2.89267
 Alpha virt. eigenvalues --    2.90848   2.91137   2.91296   2.92702   2.94313
 Alpha virt. eigenvalues --    2.94570   2.95219   2.95651   2.96371   2.97051
 Alpha virt. eigenvalues --    2.97373   2.98055   2.99135   3.00216   3.00873
 Alpha virt. eigenvalues --    3.01192   3.02340   3.03296   3.03381   3.05037
 Alpha virt. eigenvalues --    3.06444   3.09703   3.10344   3.10357   3.12636
 Alpha virt. eigenvalues --    3.13057   3.13981   3.15199   3.15830   3.17172
 Alpha virt. eigenvalues --    3.18335   3.18966   3.19455   3.20618   3.20941
 Alpha virt. eigenvalues --    3.22151   3.22188   3.23622   3.23854   3.24552
 Alpha virt. eigenvalues --    3.27153   3.29421   3.29821   3.30261   3.31817
 Alpha virt. eigenvalues --    3.32033   3.32861   3.33940   3.36383   3.38714
 Alpha virt. eigenvalues --    3.39076   3.39376   3.42031   3.43274   3.48251
 Alpha virt. eigenvalues --    3.49286   3.52819   3.53390   3.56493   3.57820
 Alpha virt. eigenvalues --    3.59136   3.59517   3.62808   3.62976   3.67501
 Alpha virt. eigenvalues --    3.67732   3.68554   3.69617   3.70776   3.71952
 Alpha virt. eigenvalues --    3.73279   3.75570   3.77747   3.79814   3.80371
 Alpha virt. eigenvalues --    3.81242   3.81316   3.81373   3.83692   3.84701
 Alpha virt. eigenvalues --    3.84927   3.85125   3.88371   3.88405   3.90625
 Alpha virt. eigenvalues --    3.91186   3.92976   3.94025   3.95806   3.96040
 Alpha virt. eigenvalues --    3.97337   3.97832   4.03373   4.03507   4.05437
 Alpha virt. eigenvalues --    4.05452   4.11721   4.12462   4.13863   4.14138
 Alpha virt. eigenvalues --    4.18226   4.18706   4.19471   4.19480   4.28258
 Alpha virt. eigenvalues --    4.28927   4.33304   4.33685   4.41817   4.42244
 Alpha virt. eigenvalues --    4.64867   4.66293   4.91795   4.91996   4.95411
 Alpha virt. eigenvalues --    4.95419   4.96250   4.96312   5.17742   5.17995
 Alpha virt. eigenvalues --    5.23204   5.23404   5.25941   5.30783   5.38441
 Alpha virt. eigenvalues --    5.38947   5.71087   5.71712   5.88712   5.89053
 Alpha virt. eigenvalues --    6.00326   6.00553   6.47963   6.48055   6.57893
 Alpha virt. eigenvalues --    6.57962   6.84576   6.84694  23.74020  23.74913
 Alpha virt. eigenvalues --   23.95524  23.96319  24.03600  24.03614  24.04857
 Alpha virt. eigenvalues --   24.05024  24.05924  24.05982  24.06741  24.07393
 Alpha virt. eigenvalues --   24.08783  24.09779  24.13703  24.14604  24.21434
 Alpha virt. eigenvalues --   24.21563  24.24682  24.25341  24.29260  24.29348
 Alpha virt. eigenvalues --   35.71475  35.71707  50.15022  50.16085  50.19218
 Alpha virt. eigenvalues --   50.22338  66.96758  66.96828
          Condensed to atoms (all electrons):
 Mulliken charges:
               1
     1  C   -0.545603
     2  C   -0.084332
     3  F   -0.141233
     4  C   -0.052472
     5  H    0.273121
     6  C   -0.272955
     7  C   -0.138891
     8  H    0.252525
     9  O   -0.270015
    10  C    0.347236
    11  H    0.169981
    12  H    0.394302
    13  C   -0.015068
    14  O   -0.330719
    15  C   -0.500528
    16  C   -0.110072
    17  H    0.187303
    18  H    0.228824
    19  N    0.274289
    20  C   -0.451885
    21  C   -0.370717
    22  H    0.193789
    23  H    0.193519
    24  H    0.232072
    25  H    0.140404
    26  H    0.186417
    27  H    0.210711
    28  H    0.186417
    29  C   -0.370725
    30  H    0.140406
    31  H    0.210714
    32  N    0.274302
    33  C   -0.451883
    34  C   -0.110077
    35  H    0.193790
    36  H    0.193519
    37  H    0.232072
    38  H    0.228825
    39  C   -0.500529
    40  H    0.187298
    41  C   -0.015094
    42  C    0.347246
    43  O   -0.330718
    44  C   -0.138895
    45  C   -0.272948
    46  H    0.394301
    47  H    0.169982
    48  C   -0.052463
    49  C   -0.084338
    50  O   -0.270015
    51  H    0.252526
    52  C   -0.545601
    53  H    0.273120
    54  F   -0.141234
 Sum of Mulliken charges =   0.00000
 Mulliken charges with hydrogens summed into heavy atoms:
               1
     1  C   -0.545603
     2  C    0.188789
     3  F   -0.141233
     4  C    0.200053
     6  C   -0.272955
     7  C    0.031090
     9  O    0.124287
    10  C    0.347236
    13  C   -0.015068
    14  O   -0.330719
    15  C   -0.313225
    16  C    0.118753
    19  N    0.274289
    20  C    0.167495
    21  C    0.166815
    29  C    0.166812
    32  N    0.274302
    33  C    0.167499
    34  C    0.118749
    39  C   -0.313231
    41  C   -0.015094
    42  C    0.347246
    43  O   -0.330718
    44  C    0.031087
    45  C   -0.272948
    48  C    0.200063
    49  C    0.188782
    50  O    0.124286
    52  C   -0.545601
    54  F   -0.141234
 Electronic spatial extent (au):  <R**2>=         108357.3275
 Charge=              0.0000 electrons
 Dipole moment (field-independent basis, Debye):
    X=              0.0000    Y=              0.0000    Z=             -0.0001  Tot=              0.0001
 Quadrupole moment (field-independent basis, Debye-Ang):
   XX=           -155.4850   YY=           -179.5284   ZZ=           -177.4253
   XY=             17.8925   XZ=             33.4251   YZ=             -0.2392
 Traceless Quadrupole moment (field-independent basis, Debye-Ang):
   XX=             15.3279   YY=             -8.7155   ZZ=             -6.6124
   XY=             17.8925   XZ=             33.4251   YZ=             -0.2392
 Octapole moment (field-independent basis, Debye-Ang**2):
  XXX=             -0.0010  YYY=           5956.4888  ZZZ=             -0.0009  XYY=           -395.7578
  XXY=           1719.5857  XXZ=             -0.0011  XZZ=             -0.0008  YZZ=           1962.2348
  YYZ=              5.2997  XYZ=           -369.6648
 Hexadecapole moment (field-independent basis, Debye-Ang**3):
 XXXX=          -3725.9280 YYYY=        -133599.7762 ZZZZ=         -10885.6057 XXXY=           -186.3157
 XXXZ=           -281.4440 YYYX=           6388.6217 YYYZ=           -261.5610 ZZZX=            -52.7830
 ZZZY=            286.8036 XXYY=         -19903.3826 XXZZ=          -2027.7370 YYZZ=         -23681.3748
 XXYZ=             35.3319 YYXZ=           3939.1925 ZZXY=             -9.9805
 N-N= 3.079180003174D+03 E-N=-9.579848971694D+03  KE= 1.456285813503D+03
 Leave Link  601 at Fri Nov  3 03:54:27 2017, MaxMem=  3758096384 cpu:         0.6
 (Enter /share/apps/gaussian/g09_D01/g09/l9999.exe)
 1\1\GINC-NXV21\SP\RwB97XD TD-FC\6-311++G(d,p)\C22H24F2N2O4\BTX008\03-N
 ov-2017\0\\#p wb97xd 6-311++G** td=(nstates=4) nosymm\\Title\\0,1\C,0,
 0.711266,-10.352067,-4.455065\C,0,0.524838,-11.682836,-4.135836\F,0,0.
 400627,-9.952529,-5.735743\C,0,1.187527,-9.399635,-3.55425\H,0,0.13003
 7,-12.394456,-4.865141\C,0,0.804151,-12.09543,-2.821006\C,0,1.478955,-
 9.829641,-2.265862\H,0,1.306509,-8.355346,-3.847943\O,0,0.587417,-13.3
 77633,-2.483228\C,0,1.302394,-11.164375,-1.854181\H,0,1.838291,-9.0855
 65,-1.554816\H,0,0.843731,-13.385183,-1.443578\C,0,1.566194,-11.642445
 ,-0.477235\O,0,1.294958,-12.881802,-0.216549\C,0,2.10687,-10.782651,0.
 521136\C,0,2.324617,-11.24733,1.805567\H,0,2.356875,-9.756222,0.265331
 \H,0,2.065237,-12.284592,2.038284\N,0,2.816311,-10.546919,2.828701\C,0
 ,3.173727,-9.143661,2.684511\C,0,3.066717,-11.165084,4.124274\H,0,4.01
 6486,-9.031414,1.982362\H,0,3.462633,-8.746043,3.666542\H,0,2.313741,-
 8.568269,2.305379\H,0,2.73056,-12.206731,4.09445\H,0,2.524709,-10.6169
 78,4.914416\H,0,4.144656,-11.130952,4.359239\H,0,-2.524714,-11.502021,
 -4.914422\C,0,-3.066723,-10.953915,-4.12427\H,0,-2.730555,-9.912268,-4
 .094456\H,0,-4.144651,-10.988047,-4.359245\N,0,-2.816307,-11.57208,-2.
 828697\C,0,-3.173733,-12.975338,-2.684507\C,0,-2.324622,-10.871668,-1.
 805573\H,0,-4.016491,-13.087585,-1.982358\H,0,-3.462628,-13.372956,-3.
 666538\H,0,-2.313736,-13.55073,-2.305385\H,0,-2.065242,-9.834406,-2.03
 8281\C,0,-2.106865,-11.336348,-0.521142\H,0,-2.35687,-12.362777,-0.265
 337\C,0,-1.566199,-10.476554,0.477239\C,0,-1.302389,-10.954624,1.85418
 5\O,0,-1.294964,-9.237197,0.216543\C,0,-1.47896,-12.289358,2.265866\C,
 0,-0.804146,-10.023569,2.821\H,0,-0.843736,-8.733816,1.443572\H,0,-1.8
 38296,-13.033434,1.55481\C,0,-1.187522,-12.719364,3.554244\C,0,-0.5248
 43,-10.436163,4.13583\O,0,-0.587422,-8.741366,2.483232\H,0,-1.306504,-
 13.763653,3.847937\C,0,-0.711271,-11.766932,4.455069\H,0,-0.130043,-9.
 724543,4.865135\F,0,-0.400633,-12.16647,5.735747\\Version=ES64L-G09Rev
 D.01\HF=-1462.8083578\RMSD=7.856e-09\PG=C01 [X(C22H24F2N2O4)]\\@


 IT MATTERS NOT HOW DEEP YOU PLOW,
 BUT HOW LONG YOU STAY IN THE FURROW.
 Job cpu time:       0 days 15 hours 19 minutes  0.4 seconds.
 File lengths (MBytes):  RWF=   1034 Int=      0 D2E=      0 Chk=    113 Scr=      1
 Normal termination of Gaussian 09 at Fri Nov  3 03:54:28 2017.
