 Entering Gaussian System, Link 0=g09
 Input=2hp_2_k846-mega_dimer_2_mon-1.com
 Output=2hp_2_k846-mega_dimer_2_mon-1.out
 Initial command:
 /share/apps/gaussian/g09_D01/g09/l1.exe "/tmp/160996.1.all.q/Gau-29380.inp" -scrdir="/tmp/160996.1.all.q/"
 Entering Link 1 = /share/apps/gaussian/g09_D01/g09/l1.exe PID=     29381.
  
 Copyright (c) 1988,1990,1992,1993,1995,1998,2003,2009,2013,
            Gaussian, Inc.  All Rights Reserved.
  
 This is part of the Gaussian(R) 09 program.  It is based on
 the Gaussian(R) 03 system (copyright 2003, Gaussian, Inc.),
 the Gaussian(R) 98 system (copyright 1998, Gaussian, Inc.),
 the Gaussian(R) 94 system (copyright 1995, Gaussian, Inc.),
 the Gaussian 92(TM) system (copyright 1992, Gaussian, Inc.),
 the Gaussian 90(TM) system (copyright 1990, Gaussian, Inc.),
 the Gaussian 88(TM) system (copyright 1988, Gaussian, Inc.),
 the Gaussian 86(TM) system (copyright 1986, Carnegie Mellon
 University), and the Gaussian 82(TM) system (copyright 1983,
 Carnegie Mellon University). Gaussian is a federally registered
 trademark of Gaussian, Inc.
  
 This software contains proprietary and confidential information,
 including trade secrets, belonging to Gaussian, Inc.
  
 This software is provided under written license and may be
 used, copied, transmitted, or stored only in accord with that
 written license.
  
 The following legend is applicable only to US Government
 contracts under FAR:
  
                    RESTRICTED RIGHTS LEGEND
  
 Use, reproduction and disclosure by the US Government is
 subject to restrictions as set forth in subparagraphs (a)
 and (c) of the Commercial Computer Software - Restricted
 Rights clause in FAR 52.227-19.
  
 Gaussian, Inc.
 340 Quinnipiac St., Bldg. 40, Wallingford CT 06492
  
  
 ---------------------------------------------------------------
 Warning -- This program may not be used in any manner that
 competes with the business of Gaussian, Inc. or will provide
 assistance to any competitor of Gaussian, Inc.  The licensee
 of this program is prohibited from giving any competitor of
 Gaussian, Inc. access to this program.  By using this program,
 the user acknowledges that Gaussian, Inc. is engaged in the
 business of creating and licensing software in the field of
 computational chemistry and represents and warrants to the
 licensee that it is not a competitor of Gaussian, Inc. and that
 it will not use this program in any manner prohibited above.
 ---------------------------------------------------------------
  

 Cite this work as:
 Gaussian 09, Revision D.01,
 M. J. Frisch, G. W. Trucks, H. B. Schlegel, G. E. Scuseria, 
 M. A. Robb, J. R. Cheeseman, G. Scalmani, V. Barone, B. Mennucci, 
 G. A. Petersson, H. Nakatsuji, M. Caricato, X. Li, H. P. Hratchian, 
 A. F. Izmaylov, J. Bloino, G. Zheng, J. L. Sonnenberg, M. Hada, 
 M. Ehara, K. Toyota, R. Fukuda, J. Hasegawa, M. Ishida, T. Nakajima, 
 Y. Honda, O. Kitao, H. Nakai, T. Vreven, J. A. Montgomery, Jr., 
 J. E. Peralta, F. Ogliaro, M. Bearpark, J. J. Heyd, E. Brothers, 
 K. N. Kudin, V. N. Staroverov, T. Keith, R. Kobayashi, J. Normand, 
 K. Raghavachari, A. Rendell, J. C. Burant, S. S. Iyengar, J. Tomasi, 
 M. Cossi, N. Rega, J. M. Millam, M. Klene, J. E. Knox, J. B. Cross, 
 V. Bakken, C. Adamo, J. Jaramillo, R. Gomperts, R. E. Stratmann, 
 O. Yazyev, A. J. Austin, R. Cammi, C. Pomelli, J. W. Ochterski, 
 R. L. Martin, K. Morokuma, V. G. Zakrzewski, G. A. Voth, 
 P. Salvador, J. J. Dannenberg, S. Dapprich, A. D. Daniels, 
 O. Farkas, J. B. Foresman, J. V. Ortiz, J. Cioslowski, 
 and D. J. Fox, Gaussian, Inc., Wallingford CT, 2013.
 
 ******************************************
 Gaussian 09:  ES64L-G09RevD.01 24-Apr-2013
                 3-Nov-2017 
 ******************************************
 %chk=2hp_2_k846-mega_dimer_2_mon-1.chk
 %nproc=4
 Will use up to    4 processors via shared memory.
 %mem=28GB
 ------------------------------------------
 #p wb97xd 6-311++G** td=(nstates=4) nosymm
 ------------------------------------------
 1/38=1/1;
 2/12=2,15=1,17=6,18=5,40=1/2;
 3/5=4,6=6,7=1111,11=9,16=1,25=1,30=1,74=-58/1,2,8,3;
 4//1;
 5/5=2,38=5/2;
 8/6=1,10=2,108=4/1;
 9/41=4,42=1,70=2/14;
 6/7=2,8=2,9=2,10=2/1;
 99/5=1,9=1/99;
 Leave Link    1 at Fri Nov  3 00:09:50 2017, MaxMem=  3758096384 cpu:         0.3
 (Enter /share/apps/gaussian/g09_D01/g09/l101.exe)
 -----
 Title
 -----
 Symbolic Z-matrix:
 Charge =  0 Multiplicity = 1
 H                    -2.52471  -11.50202  -4.91442 
 C                    -3.06672  -10.95392  -4.12427 
 H                    -2.73056  -9.91227  -4.09446 
 H                    -4.14465  -10.98805  -4.35925 
 N                    -2.81631  -11.57208  -2.8287 
 C                    -3.17373  -12.97534  -2.68451 
 C                    -2.32462  -10.87167  -1.80557 
 H                    -4.01649  -13.08759  -1.98236 
 H                    -3.46263  -13.37296  -3.66654 
 H                    -2.31374  -13.55073  -2.30539 
 H                    -2.06524  -9.83441  -2.03828 
 C                    -2.10686  -11.33635  -0.52114 
 H                    -2.35687  -12.36278  -0.26534 
 C                    -1.5662   -10.47655   0.47724 
 C                    -1.30239  -10.95462   1.85419 
 O                    -1.29496  -9.2372    0.21654 
 C                    -1.47896  -12.28936   2.26587 
 C                    -0.80415  -10.02357   2.821 
 H                    -0.84374  -8.73382   1.44357 
 H                    -1.8383   -13.03343   1.55481 
 C                    -1.18752  -12.71936   3.55424 
 C                    -0.52484  -10.43616   4.13583 
 O                    -0.58742  -8.74137   2.48323 
 H                    -1.3065   -13.76365   3.84794 
 C                    -0.71127  -11.76693   4.45507 
 H                    -0.13004  -9.72454   4.86514 
 F                    -0.40063  -12.16647   5.73575 
 
 NAtoms=     27 NQM=       27 NQMF=       0 NMMI=      0 NMMIF=      0
                NMic=       0 NMicF=      0.
                    Isotopes and Nuclear Properties:
 (Nuclear quadrupole moments (NQMom) in fm**2, nuclear magnetic moments (NMagM)
  in nuclear magnetons)

  Atom         1           2           3           4           5           6           7           8           9          10
 IAtWgt=           1          12           1           1          14          12          12           1           1           1
 AtmWgt=   1.0078250  12.0000000   1.0078250   1.0078250  14.0030740  12.0000000  12.0000000   1.0078250   1.0078250   1.0078250
 NucSpn=           1           0           1           1           2           0           0           1           1           1
 AtZEff=   0.0000000   0.0000000   0.0000000   0.0000000   0.0000000   0.0000000   0.0000000   0.0000000   0.0000000   0.0000000
 NQMom=    0.0000000   0.0000000   0.0000000   0.0000000   2.0440000   0.0000000   0.0000000   0.0000000   0.0000000   0.0000000
 NMagM=    2.7928460   0.0000000   2.7928460   2.7928460   0.4037610   0.0000000   0.0000000   2.7928460   2.7928460   2.7928460
 AtZNuc=   1.0000000   6.0000000   1.0000000   1.0000000   7.0000000   6.0000000   6.0000000   1.0000000   1.0000000   1.0000000

  Atom        11          12          13          14          15          16          17          18          19          20
 IAtWgt=           1          12           1          12          12          16          12          12           1           1
 AtmWgt=   1.0078250  12.0000000   1.0078250  12.0000000  12.0000000  15.9949146  12.0000000  12.0000000   1.0078250   1.0078250
 NucSpn=           1           0           1           0           0           0           0           0           1           1
 AtZEff=   0.0000000   0.0000000   0.0000000   0.0000000   0.0000000   0.0000000   0.0000000   0.0000000   0.0000000   0.0000000
 NQMom=    0.0000000   0.0000000   0.0000000   0.0000000   0.0000000   0.0000000   0.0000000   0.0000000   0.0000000   0.0000000
 NMagM=    2.7928460   0.0000000   2.7928460   0.0000000   0.0000000   0.0000000   0.0000000   0.0000000   2.7928460   2.7928460
 AtZNuc=   1.0000000   6.0000000   1.0000000   6.0000000   6.0000000   8.0000000   6.0000000   6.0000000   1.0000000   1.0000000

  Atom        21          22          23          24          25          26          27
 IAtWgt=          12          12          16           1          12           1          19
 AtmWgt=  12.0000000  12.0000000  15.9949146   1.0078250  12.0000000   1.0078250  18.9984033
 NucSpn=           0           0           0           1           0           1           1
 AtZEff=   0.0000000   0.0000000   0.0000000   0.0000000   0.0000000   0.0000000   0.0000000
 NQMom=    0.0000000   0.0000000   0.0000000   0.0000000   0.0000000   0.0000000   0.0000000
 NMagM=    0.0000000   0.0000000   0.0000000   2.7928460   0.0000000   2.7928460   2.6288670
 AtZNuc=   6.0000000   6.0000000   8.0000000   1.0000000   6.0000000   1.0000000   9.0000000
 Leave Link  101 at Fri Nov  3 00:09:50 2017, MaxMem=  3758096384 cpu:         0.2
 (Enter /share/apps/gaussian/g09_D01/g09/l202.exe)
                          Input orientation:                          
 ---------------------------------------------------------------------
 Center     Atomic      Atomic             Coordinates (Angstroms)
 Number     Number       Type             X           Y           Z
 ---------------------------------------------------------------------
      1          1           0       -2.524714  -11.502021   -4.914422
      2          6           0       -3.066723  -10.953915   -4.124270
      3          1           0       -2.730555   -9.912268   -4.094456
      4          1           0       -4.144651  -10.988047   -4.359245
      5          7           0       -2.816307  -11.572080   -2.828697
      6          6           0       -3.173733  -12.975338   -2.684507
      7          6           0       -2.324622  -10.871668   -1.805573
      8          1           0       -4.016491  -13.087585   -1.982358
      9          1           0       -3.462628  -13.372956   -3.666538
     10          1           0       -2.313736  -13.550730   -2.305385
     11          1           0       -2.065242   -9.834406   -2.038281
     12          6           0       -2.106865  -11.336348   -0.521142
     13          1           0       -2.356870  -12.362777   -0.265337
     14          6           0       -1.566199  -10.476554    0.477239
     15          6           0       -1.302389  -10.954624    1.854185
     16          8           0       -1.294964   -9.237197    0.216543
     17          6           0       -1.478960  -12.289358    2.265866
     18          6           0       -0.804146  -10.023569    2.821000
     19          1           0       -0.843736   -8.733816    1.443572
     20          1           0       -1.838296  -13.033434    1.554810
     21          6           0       -1.187522  -12.719364    3.554244
     22          6           0       -0.524843  -10.436163    4.135830
     23          8           0       -0.587422   -8.741366    2.483232
     24          1           0       -1.306504  -13.763653    3.847937
     25          6           0       -0.711271  -11.766932    4.455069
     26          1           0       -0.130043   -9.724543    4.865135
     27          9           0       -0.400633  -12.166470    5.735747
 ---------------------------------------------------------------------
                    Distance matrix (angstroms):
                    1          2          3          4          5
     1  H    0.000000
     2  C    1.103872   0.000000
     3  H    1.800564   1.094955   0.000000
     4  H    1.787900   1.103769   1.796408   0.000000
     5  N    2.107174   1.457170   2.089133   2.109068   0.000000
     6  C    2.750347   2.484053   3.400994   2.774303   1.455224
     7  C    3.178415   2.435946   2.514799   3.138039   1.333834
     8  H    3.651905   3.168974   4.024578   3.173969   2.110329
     9  H    2.436657   2.493596   3.563061   2.575420   2.088747
    10  H    3.323973   3.258647   4.075895   3.760045   2.107484
    11  H    3.356224   2.570528   2.162535   3.322906   2.051430
    12  C    4.416215   3.748348   3.896866   4.359463   2.425631
    13  H    4.731074   4.168950   4.561446   4.673984   2.721599
    14  C    5.571386   4.863469   4.751267   5.504690   3.700292
    15  C    6.899838   6.233362   6.205844   6.832736   4.960099
    16  O    5.741822   4.992886   4.593621   5.667806   4.127911
    17  C    7.298633   6.718500   6.904400   7.258885   5.315784
    18  C    8.061199   7.363530   7.179622   7.977789   6.194010
    19  H    7.135316   6.393072   5.968131   7.046296   5.495367
    20  H    6.683364   6.171335   6.515521   6.669252   4.723049
    21  C    8.659579   8.099863   8.292367   8.623536   6.686639
    22  C    9.329662   8.657856   8.536817   9.250615   7.419282
    23  O    8.130166   7.396039   7.016410   8.032493   6.418525
    24  H    9.131153   8.634181   8.941068   9.116847   7.187485
    25  C    9.547047   8.933880   8.978400   9.491411   7.584352
    26  H   10.224168   9.536501   9.331247  10.139167   8.356103
    27  F   10.880226  10.285828  10.350983  10.831215   8.918435
                    6          7          8          9         10
     6  C    0.000000
     7  C    2.432888   0.000000
     8  H    1.102658   2.793557   0.000000
     9  H    1.098155   3.318839   1.795735   0.000000
    10  H    1.102000   2.725308   1.793941   1.790054   0.000000
    11  H    3.392906   1.094232   3.793900   4.138266   3.734188
    12  C    2.916272   1.383152   2.974669   3.984894   2.851282
    13  H    2.625810   2.144009   2.495566   3.716360   2.361120
    14  C    4.338747   2.437735   4.344080   5.399674   4.213356
    15  C    5.308949   3.800746   5.160904   6.402605   5.006457
    16  O    5.091126   2.796541   5.202630   6.073021   5.099469
    17  C    5.277217   4.393359   5.012348   6.348428   4.815002
    18  C    6.681204   4.943308   6.540612   7.770075   6.403089
    19  H    6.360851   4.161776   6.384252   7.381967   6.278395
    20  H    4.445062   4.025161   4.154398   5.478705   3.923614
    21  C    6.552295   5.782267   6.228372   7.598880   6.024515
    22  C    7.744742   6.223274   7.526876   8.839247   7.374952
    23  O    7.163871   5.094104   7.112639   8.218157   7.002928
    24  H    6.839650   6.431354   6.464784   7.827442   6.238848
    25  C    7.648366   6.526870   7.355887   8.724092   7.173114
    26  H    8.765205   7.115505   8.561699   9.859335   8.415734
    27  F    8.901968   7.889851   8.572749   9.961646   8.380689
                   11         12         13         14         15
    11  H    0.000000
    12  C    2.135245   0.000000
    13  H    3.101780   1.086966   0.000000
    14  C    2.643717   1.424195   2.175872   0.000000
    15  C    4.121665   2.536745   2.754487   1.481259   0.000000
    16  O    2.456465   2.368501   3.336031   1.295198   2.373074
    17  C    4.989609   3.011629   2.680132   2.548147   1.407897
    18  C    5.023819   3.819735   4.172328   2.505820   1.431726
    19  H    3.850542   3.496966   4.287109   2.119643   2.304551
    20  H    4.816180   2.694774   2.007893   2.787980   2.167550
    21  C    6.353716   4.400761   4.010452   3.826428   2.453101
    22  C    6.391759   5.000051   5.141832   3.804122   2.465620
    23  O    4.880857   4.250753   4.878544   2.827170   2.409437
    24  H    7.117740   5.061743   4.470430   4.715301   3.444664
    25  C    6.908798   5.186112   5.034408   4.268385   2.788165
    26  H    7.170371   5.959675   6.183913   4.677788   3.457357
    27  F    8.285225   6.538271   6.314935   5.645021   4.165124
                   16         17         18         19         20
    16  O    0.000000
    17  C    3.680933   0.000000
    18  C    2.764503   2.428445   0.000000
    19  H    1.400928   3.704262   1.887416   0.000000
    20  H    4.061722   1.090125   3.425199   4.414548   0.000000
    21  C    4.824653   1.389158   2.819917   4.523021   2.126002
    22  C    4.170302   2.800256   1.406066   3.201239   3.890069
    23  O    2.425766   3.664742   1.343540   1.070816   4.566016
    24  H    5.803099   2.169386   3.910907   5.594138   2.464641
    25  C    4.970449   2.378000   2.391259   4.276266   3.359422
    26  H    4.817048   3.892821   2.173090   3.632904   4.982483
    27  F    6.312058   3.635652   3.640137   5.513821   4.505412
                   21         22         23         24         25
    21  C    0.000000
    22  C    2.447528   0.000000
    23  O    4.163130   2.367981   0.000000
    24  H    1.091307   3.430170   5.253843   0.000000
    25  C    1.394786   1.381164   3.613520   2.170209   0.000000
    26  H    3.435935   1.092774   2.617116   4.328182   2.162714
    27  F    2.384081   2.359899   4.727058   2.633519   1.377049
                   26         27
    26  H    0.000000
    27  F    2.606567   0.000000
 Symmetry turned off by external request.
 Stoichiometry    C11H12FNO2
 Framework group  C1[X(C11H12FNO2)]
 Deg. of freedom    75
 Full point group                 C1      NOp   1
 Rotational constants (GHZ):      1.4421818      0.2499394      0.2136368
 Leave Link  202 at Fri Nov  3 00:09:50 2017, MaxMem=  3758096384 cpu:         0.0
 (Enter /share/apps/gaussian/g09_D01/g09/l301.exe)
 Standard basis: 6-311++G(d,p) (5D, 7F)
 Ernie: Thresh=  0.10000D-02 Tol=  0.10000D-05 Strict=F.
   414 basis functions,   648 primitive gaussians,   429 cartesian basis functions
    55 alpha electrons       55 beta electrons
       nuclear repulsion energy       935.4088050901 Hartrees.
 IExCor= 4639 DFT=T Ex+Corr=wB97XD ExCW=0 ScaHFX=  1.000000
 ScaDFX=  1.000000  1.000000  1.000000  1.000000 ScalE2=  1.000000  1.000000
 IRadAn=      0 IRanWt=     -1 IRanGd=            0 ICorTp=0 IEmpDi=121
  HFx wShort=  0.000000 wLong=  0.200000 cFull=  0.222036 cShort=  0.000000 cLong=  0.777964
  DFx wShort=  0.000000 wLong=  0.200000 cFull=  0.000000 cShort=  0.000000 cLong=  1.000000
 NAtoms=   27 NActive=   27 NUniq=   27 SFac= 1.00D+00 NAtFMM=   60 NAOKFM=F Big=F
 Integral buffers will be    131072 words long.
 Raffenetti 1 integral format.
 Two-electron integral symmetry is turned off.
 R6Disp:  Grimme-D2 Dispersion energy=       -0.0151265576 Hartrees.
 Nuclear repulsion after empirical dispersion term =      935.3936785325 Hartrees.
 Leave Link  301 at Fri Nov  3 00:09:50 2017, MaxMem=  3758096384 cpu:         0.1
 (Enter /share/apps/gaussian/g09_D01/g09/l302.exe)
 NPDir=0 NMtPBC=     1 NCelOv=     1 NCel=       1 NClECP=     1 NCelD=      1
         NCelK=      1 NCelE2=     1 NClLst=     1 CellRange=     0.0.
 One-electron integrals computed using PRISM.
 NBasis=   414 RedAO= T EigKep=  1.62D-06  NBF=   414
 NBsUse=   411 1.00D-06 EigRej=  8.56D-07 NBFU=   411
 Precomputing XC quadrature grid using
 IXCGrd= 4 IRadAn=           0 IRanWt=          -1 IRanGd=           0 AccXCQ= 0.00D+00.
 Generated NRdTot=       0 NPtTot=           0 NUsed=           0 NTot=          32
 NSgBfM=   424   424   424   424   424 MxSgAt=    27 MxSgA2=    27.
 Leave Link  302 at Fri Nov  3 00:09:50 2017, MaxMem=  3758096384 cpu:         1.6
 (Enter /share/apps/gaussian/g09_D01/g09/l308.exe)
 Leave Link  308 at Fri Nov  3 00:09:50 2017, MaxMem=  3758096384 cpu:         0.2
 (Enter /share/apps/gaussian/g09_D01/g09/l303.exe)
 DipDrv:  MaxL=1.
 Leave Link  303 at Fri Nov  3 00:09:50 2017, MaxMem=  3758096384 cpu:         0.2
 (Enter /share/apps/gaussian/g09_D01/g09/l401.exe)
 ExpMin= 3.60D-02 ExpMax= 1.14D+04 ExpMxC= 1.72D+03 IAcc=3 IRadAn=         5 AccDes= 0.00D+00
 Harris functional with IExCor= 4639 and IRadAn=       5 diagonalized for initial guess.
 HarFok:  IExCor= 4639 AccDes= 0.00D+00 IRadAn=         5 IDoV= 1 UseB2=F ITyADJ=14
 ICtDFT=  3500011 ScaDFX=  1.000000  1.000000  1.000000  1.000000
 FoFCou: FMM=F IPFlag=           0 FMFlag=      100000 FMFlg1=           0
         NFxFlg=           0 DoJE=T BraDBF=F KetDBF=T FulRan=T
         wScrn=  0.000000 ICntrl=     500 IOpCl=  0 I1Cent=   200000004 NGrid=           0
         NMat0=    1 NMatS0=      1 NMatT0=    0 NMatD0=    1 NMtDS0=    0 NMtDT0=    0
 Symmetry not used in FoFCou.
 Harris En= -701.390151822352    
 JPrj=0 DoOrth=F DoCkMO=F.
 Leave Link  401 at Fri Nov  3 00:09:57 2017, MaxMem=  3758096384 cpu:        24.5
 (Enter /share/apps/gaussian/g09_D01/g09/l502.exe)
 Closed shell SCF:
 Using DIIS extrapolation, IDIIS=  1040.
 Two-electron integral symmetry not used.
 IVT=      575875 IEndB=      575875 NGot=  3758096384 MDV=  3757721620
 LenX=  3757721620 LenY=  3757537138
 Requested convergence on RMS density matrix=1.00D-08 within 128 cycles.
 Requested convergence on MAX density matrix=1.00D-06.
 Requested convergence on             energy=1.00D-06.
 No special actions if energy rises.
 Fock matrices will be formed incrementally for  20 cycles.

 Cycle   1  Pass 1  IDiag  1:
 FoFJK:  IHMeth= 1 ICntrl=       0 DoSepK=T KAlg= 0 I1Cent=   0 FoldK=F
 IRaf=         1 NMat=   1 IRICut=       1 DoRegI=T DoRafI=F ISym2E= 0.
 FoFCou: FMM=F IPFlag=           0 FMFlag=      100000 FMFlg1=           0
         NFxFlg=           0 DoJE=T BraDBF=F KetDBF=F FulRan=T
         wScrn=  0.000000 ICntrl=     500 IOpCl=  0 I1Cent=           0 NGrid=           0
         NMat0=    1 NMatS0=      1 NMatT0=    0 NMatD0=    1 NMtDS0=    0 NMtDT0=    0
 Symmetry not used in FoFCou.
 E= -731.039097426760    
 DIIS: error= 1.16D-01 at cycle   1 NSaved=   1.
 NSaved= 1 IEnMin= 1 EnMin= -731.039097426760     IErMin= 1 ErrMin= 1.16D-01
 ErrMax= 1.16D-01  0.00D+00 EMaxC= 1.00D-01 BMatC= 1.75D+00 BMatP= 1.75D+00
 IDIUse=3 WtCom= 0.00D+00 WtEn= 1.00D+00
 Coeff-Com:  0.100D+01
 Coeff-En:   0.100D+01
 Coeff:      0.100D+01
 Gap=     0.310 Goal=   None    Shift=    0.000
 GapD=    0.310 DampG=1.000 DampE=0.250 DampFc=0.2500 IDamp=-1.
 Damping current iteration by 2.50D-01
 RMSDP=3.38D-02 MaxDP=3.16D+00              OVMax= 1.84D-01

 Cycle   2  Pass 1  IDiag  1:
 RMSU=  2.77D-03    CP:  9.01D-01
 E= -731.157621882662     Delta-E=       -0.118524455902 Rises=F Damp=T
 DIIS: error= 8.28D-02 at cycle   2 NSaved=   2.
 NSaved= 2 IEnMin= 2 EnMin= -731.157621882662     IErMin= 2 ErrMin= 8.28D-02
 ErrMax= 8.28D-02  0.00D+00 EMaxC= 1.00D-01 BMatC= 8.27D-01 BMatP= 1.75D+00
 IDIUse=3 WtCom= 1.72D-01 WtEn= 8.28D-01
 Coeff-Com: -0.172D+01 0.272D+01
 Coeff-En:   0.000D+00 0.100D+01
 Coeff:     -0.296D+00 0.130D+01
 Gap=     0.274 Goal=   None    Shift=    0.000
 RMSDP=2.42D-02 MaxDP=2.38D+00 DE=-1.19D-01 OVMax= 7.02D-02

 Cycle   3  Pass 1  IDiag  1:
 RMSU=  2.55D-03    CP:  6.13D-01  3.00D+00
 E= -731.358384404929     Delta-E=       -0.200762522267 Rises=F Damp=F
 DIIS: error= 1.38D-02 at cycle   3 NSaved=   3.
 NSaved= 3 IEnMin= 3 EnMin= -731.358384404929     IErMin= 3 ErrMin= 1.38D-02
 ErrMax= 1.38D-02  0.00D+00 EMaxC= 1.00D-01 BMatC= 4.86D-02 BMatP= 8.27D-01
 IDIUse=3 WtCom= 8.62D-01 WtEn= 1.38D-01
 Coeff-Com:  0.106D+01-0.137D+01 0.131D+01
 Coeff-En:   0.000D+00 0.000D+00 0.100D+01
 Coeff:      0.914D+00-0.118D+01 0.127D+01
 Gap=     0.284 Goal=   None    Shift=    0.000
 RMSDP=3.10D-03 MaxDP=2.03D-01 DE=-2.01D-01 OVMax= 2.88D-02

 Cycle   4  Pass 1  IDiag  1:
 RMSU=  2.71D-03    CP:  6.01D-01  2.85D+00  1.18D+00
 E= -731.384662222477     Delta-E=       -0.026277817547 Rises=F Damp=F
 DIIS: error= 3.95D-03 at cycle   4 NSaved=   4.
 NSaved= 4 IEnMin= 4 EnMin= -731.384662222477     IErMin= 4 ErrMin= 3.95D-03
 ErrMax= 3.95D-03  0.00D+00 EMaxC= 1.00D-01 BMatC= 4.82D-03 BMatP= 4.86D-02
 IDIUse=3 WtCom= 9.60D-01 WtEn= 3.95D-02
 Coeff-Com:  0.418D+00-0.543D+00 0.599D+00 0.527D+00
 Coeff-En:   0.000D+00 0.000D+00 0.000D+00 0.100D+01
 Coeff:      0.402D+00-0.522D+00 0.575D+00 0.545D+00
 Gap=     0.281 Goal=   None    Shift=    0.000
 RMSDP=1.08D-03 MaxDP=6.99D-02 DE=-2.63D-02 OVMax= 1.00D-02

 Cycle   5  Pass 1  IDiag  1:
 RMSU=  6.65D-04    CP:  6.00D-01  3.00D+00  1.20D+00  7.48D-01
 E= -731.387673474972     Delta-E=       -0.003011252496 Rises=F Damp=F
 DIIS: error= 8.65D-04 at cycle   5 NSaved=   5.
 NSaved= 5 IEnMin= 5 EnMin= -731.387673474972     IErMin= 5 ErrMin= 8.65D-04
 ErrMax= 8.65D-04  0.00D+00 EMaxC= 1.00D-01 BMatC= 2.71D-04 BMatP= 4.82D-03
 IDIUse=3 WtCom= 9.91D-01 WtEn= 8.65D-03
 Coeff-Com:  0.750D-02-0.930D-02 0.429D-01 0.214D+00 0.745D+00
 Coeff-En:   0.000D+00 0.000D+00 0.000D+00 0.000D+00 0.100D+01
 Coeff:      0.744D-02-0.922D-02 0.426D-01 0.212D+00 0.747D+00
 Gap=     0.281 Goal=   None    Shift=    0.000
 RMSDP=3.93D-04 MaxDP=3.50D-02 DE=-3.01D-03 OVMax= 4.05D-03

 Cycle   6  Pass 1  IDiag  1:
 RMSU=  1.84D-04    CP:  5.96D-01  3.00D+00  1.19D+00  7.68D-01  1.00D+00
 E= -731.387890796380     Delta-E=       -0.000217321407 Rises=F Damp=F
 DIIS: error= 3.21D-04 at cycle   6 NSaved=   6.
 NSaved= 6 IEnMin= 6 EnMin= -731.387890796380     IErMin= 6 ErrMin= 3.21D-04
 ErrMax= 3.21D-04  0.00D+00 EMaxC= 1.00D-01 BMatC= 2.63D-05 BMatP= 2.71D-04
 IDIUse=3 WtCom= 9.97D-01 WtEn= 3.21D-03
 Coeff-Com: -0.300D-01 0.393D-01-0.312D-01 0.447D-01 0.319D+00 0.658D+00
 Coeff-En:   0.000D+00 0.000D+00 0.000D+00 0.000D+00 0.000D+00 0.100D+01
 Coeff:     -0.299D-01 0.392D-01-0.311D-01 0.445D-01 0.318D+00 0.660D+00
 Gap=     0.281 Goal=   None    Shift=    0.000
 RMSDP=1.22D-04 MaxDP=1.37D-02 DE=-2.17D-04 OVMax= 2.74D-03

 Cycle   7  Pass 1  IDiag  1:
 RMSU=  6.86D-05    CP:  5.95D-01  3.00D+00  1.18D+00  7.66D-01  1.10D+00
                    CP:  1.20D+00
 E= -731.387920038198     Delta-E=       -0.000029241819 Rises=F Damp=F
 DIIS: error= 9.98D-05 at cycle   7 NSaved=   7.
 NSaved= 7 IEnMin= 7 EnMin= -731.387920038198     IErMin= 7 ErrMin= 9.98D-05
 ErrMax= 9.98D-05  0.00D+00 EMaxC= 1.00D-01 BMatC= 4.24D-06 BMatP= 2.63D-05
 IDIUse=1 WtCom= 1.00D+00 WtEn= 0.00D+00
 Coeff-Com: -0.111D-01 0.143D-01-0.204D-01-0.201D-01 0.514D-02 0.260D+00
 Coeff-Com:  0.772D+00
 Coeff:     -0.111D-01 0.143D-01-0.204D-01-0.201D-01 0.514D-02 0.260D+00
 Coeff:      0.772D+00
 Gap=     0.281 Goal=   None    Shift=    0.000
 RMSDP=4.98D-05 MaxDP=3.57D-03 DE=-2.92D-05 OVMax= 8.94D-04

 Cycle   8  Pass 1  IDiag  1:
 RMSU=  2.11D-05    CP:  5.95D-01  3.00D+00  1.19D+00  7.69D-01  1.14D+00
                    CP:  1.35D+00  1.13D+00
 E= -731.387926239524     Delta-E=       -0.000006201325 Rises=F Damp=F
 DIIS: error= 6.96D-05 at cycle   8 NSaved=   8.
 NSaved= 8 IEnMin= 8 EnMin= -731.387926239524     IErMin= 8 ErrMin= 6.96D-05
 ErrMax= 6.96D-05  0.00D+00 EMaxC= 1.00D-01 BMatC= 8.29D-07 BMatP= 4.24D-06
 IDIUse=1 WtCom= 1.00D+00 WtEn= 0.00D+00
 Coeff-Com:  0.299D-02-0.414D-02-0.260D-02-0.217D-01-0.715D-01-0.761D-02
 Coeff-Com:  0.361D+00 0.744D+00
 Coeff:      0.299D-02-0.414D-02-0.260D-02-0.217D-01-0.715D-01-0.761D-02
 Coeff:      0.361D+00 0.744D+00
 Gap=     0.282 Goal=   None    Shift=    0.000
 RMSDP=2.13D-05 MaxDP=1.51D-03 DE=-6.20D-06 OVMax= 7.64D-04

 Cycle   9  Pass 1  IDiag  1:
 RMSU=  1.27D-05    CP:  5.95D-01  3.00D+00  1.19D+00  7.69D-01  1.16D+00
                    CP:  1.39D+00  1.10D+00  1.22D+00
 E= -731.387927739099     Delta-E=       -0.000001499575 Rises=F Damp=F
 DIIS: error= 1.26D-05 at cycle   9 NSaved=   9.
 NSaved= 9 IEnMin= 9 EnMin= -731.387927739099     IErMin= 9 ErrMin= 1.26D-05
 ErrMax= 1.26D-05  0.00D+00 EMaxC= 1.00D-01 BMatC= 8.30D-08 BMatP= 8.29D-07
 IDIUse=1 WtCom= 1.00D+00 WtEn= 0.00D+00
 Coeff-Com:  0.234D-02-0.309D-02 0.217D-02-0.294D-02-0.183D-01-0.346D-01
 Coeff-Com: -0.408D-01 0.216D+00 0.879D+00
 Coeff:      0.234D-02-0.309D-02 0.217D-02-0.294D-02-0.183D-01-0.346D-01
 Coeff:     -0.408D-01 0.216D+00 0.879D+00
 Gap=     0.282 Goal=   None    Shift=    0.000
 RMSDP=1.19D-05 MaxDP=8.94D-04 DE=-1.50D-06 OVMax= 2.60D-04

 Cycle  10  Pass 1  IDiag  1:
 RMSU=  3.54D-06    CP:  5.95D-01  3.00D+00  1.19D+00  7.68D-01  1.16D+00
                    CP:  1.40D+00  1.08D+00  1.39D+00  1.30D+00
 E= -731.387927907617     Delta-E=       -0.000000168518 Rises=F Damp=F
 DIIS: error= 7.53D-06 at cycle  10 NSaved=  10.
 NSaved=10 IEnMin=10 EnMin= -731.387927907617     IErMin=10 ErrMin= 7.53D-06
 ErrMax= 7.53D-06  0.00D+00 EMaxC= 1.00D-01 BMatC= 1.19D-08 BMatP= 8.30D-08
 IDIUse=1 WtCom= 1.00D+00 WtEn= 0.00D+00
 Coeff-Com:  0.262D-03-0.304D-03 0.129D-02 0.296D-02 0.697D-02-0.774D-02
 Coeff-Com: -0.825D-01-0.322D-01 0.305D+00 0.806D+00
 Coeff:      0.262D-03-0.304D-03 0.129D-02 0.296D-02 0.697D-02-0.774D-02
 Coeff:     -0.825D-01-0.322D-01 0.305D+00 0.806D+00
 Gap=     0.282 Goal=   None    Shift=    0.000
 RMSDP=5.81D-06 MaxDP=5.66D-04 DE=-1.69D-07 OVMax= 8.94D-05

 Cycle  11  Pass 1  IDiag  1:
 RMSU=  1.55D-06    CP:  5.95D-01  3.00D+00  1.19D+00  7.68D-01  1.16D+00
                    CP:  1.39D+00  1.07D+00  1.47D+00  1.41D+00  1.29D+00
 E= -731.387927930886     Delta-E=       -0.000000023269 Rises=F Damp=F
 DIIS: error= 1.73D-06 at cycle  11 NSaved=  11.
 NSaved=11 IEnMin=11 EnMin= -731.387927930886     IErMin=11 ErrMin= 1.73D-06
 ErrMax= 1.73D-06  0.00D+00 EMaxC= 1.00D-01 BMatC= 8.63D-10 BMatP= 1.19D-08
 IDIUse=1 WtCom= 1.00D+00 WtEn= 0.00D+00
 Coeff-Com: -0.998D-04 0.144D-03 0.175D-03 0.939D-03 0.298D-02 0.172D-02
 Coeff-Com: -0.174D-01-0.228D-01-0.911D-02 0.173D+00 0.871D+00
 Coeff:     -0.998D-04 0.144D-03 0.175D-03 0.939D-03 0.298D-02 0.172D-02
 Coeff:     -0.174D-01-0.228D-01-0.911D-02 0.173D+00 0.871D+00
 Gap=     0.282 Goal=   None    Shift=    0.000
 RMSDP=1.06D-06 MaxDP=7.58D-05 DE=-2.33D-08 OVMax= 3.53D-05

 Cycle  12  Pass 1  IDiag  1:
 RMSU=  4.62D-07    CP:  5.95D-01  3.00D+00  1.19D+00  7.68D-01  1.16D+00
                    CP:  1.39D+00  1.06D+00  1.48D+00  1.43D+00  1.41D+00
                    CP:  1.06D+00
 E= -731.387927933251     Delta-E=       -0.000000002364 Rises=F Damp=F
 DIIS: error= 1.20D-06 at cycle  12 NSaved=  12.
 NSaved=12 IEnMin=12 EnMin= -731.387927933251     IErMin=12 ErrMin= 1.20D-06
 ErrMax= 1.20D-06  0.00D+00 EMaxC= 1.00D-01 BMatC= 1.60D-10 BMatP= 8.63D-10
 IDIUse=1 WtCom= 1.00D+00 WtEn= 0.00D+00
 Coeff-Com: -0.336D-04 0.415D-04-0.983D-04-0.150D-03-0.246D-03 0.147D-02
 Coeff-Com:  0.579D-02-0.210D-02-0.417D-01-0.756D-01 0.243D+00 0.869D+00
 Coeff:     -0.336D-04 0.415D-04-0.983D-04-0.150D-03-0.246D-03 0.147D-02
 Coeff:      0.579D-02-0.210D-02-0.417D-01-0.756D-01 0.243D+00 0.869D+00
 Gap=     0.282 Goal=   None    Shift=    0.000
 RMSDP=4.18D-07 MaxDP=3.00D-05 DE=-2.36D-09 OVMax= 1.69D-05

 Cycle  13  Pass 1  IDiag  1:
 RMSU=  1.74D-07    CP:  5.95D-01  3.00D+00  1.19D+00  7.68D-01  1.16D+00
                    CP:  1.39D+00  1.06D+00  1.48D+00  1.44D+00  1.45D+00
                    CP:  1.15D+00  1.17D+00
 E= -731.387927933630     Delta-E=       -0.000000000379 Rises=F Damp=F
 DIIS: error= 4.72D-07 at cycle  13 NSaved=  13.
 NSaved=13 IEnMin=13 EnMin= -731.387927933630     IErMin=13 ErrMin= 4.72D-07
 ErrMax= 4.72D-07  0.00D+00 EMaxC= 1.00D-01 BMatC= 2.58D-11 BMatP= 1.60D-10
 IDIUse=1 WtCom= 1.00D+00 WtEn= 0.00D+00
 Coeff-Com: -0.665D-06-0.187D-05-0.622D-04-0.185D-03-0.523D-03 0.289D-03
 Coeff-Com:  0.456D-02 0.218D-02-0.115D-01-0.519D-01-0.384D-01 0.286D+00
 Coeff-Com:  0.809D+00
 Coeff:     -0.665D-06-0.187D-05-0.622D-04-0.185D-03-0.523D-03 0.289D-03
 Coeff:      0.456D-02 0.218D-02-0.115D-01-0.519D-01-0.384D-01 0.286D+00
 Coeff:      0.809D+00
 Gap=     0.282 Goal=   None    Shift=    0.000
 RMSDP=1.63D-07 MaxDP=1.03D-05 DE=-3.79D-10 OVMax= 6.92D-06

 Cycle  14  Pass 1  IDiag  1:
 RMSU=  7.39D-08    CP:  5.95D-01  3.00D+00  1.19D+00  7.68D-01  1.16D+00
                    CP:  1.39D+00  1.06D+00  1.48D+00  1.44D+00  1.46D+00
                    CP:  1.17D+00  1.25D+00  1.35D+00
 E= -731.387927933709     Delta-E=       -0.000000000079 Rises=F Damp=F
 DIIS: error= 2.49D-07 at cycle  14 NSaved=  14.
 NSaved=14 IEnMin=14 EnMin= -731.387927933709     IErMin=14 ErrMin= 2.49D-07
 ErrMax= 2.49D-07  0.00D+00 EMaxC= 1.00D-01 BMatC= 4.94D-12 BMatP= 2.58D-11
 IDIUse=1 WtCom= 1.00D+00 WtEn= 0.00D+00
 Coeff-Com: -0.373D-06 0.273D-06-0.665D-05-0.219D-04-0.907D-04-0.113D-03
 Coeff-Com:  0.390D-03 0.603D-03 0.450D-02-0.269D-02-0.510D-01-0.444D-01
 Coeff-Com:  0.245D+00 0.847D+00
 Coeff:     -0.373D-06 0.273D-06-0.665D-05-0.219D-04-0.907D-04-0.113D-03
 Coeff:      0.390D-03 0.603D-03 0.450D-02-0.269D-02-0.510D-01-0.444D-01
 Coeff:      0.245D+00 0.847D+00
 Gap=     0.282 Goal=   None    Shift=    0.000
 RMSDP=6.62D-08 MaxDP=5.10D-06 DE=-7.89D-11 OVMax= 2.78D-06

 Cycle  15  Pass 1  IDiag  1:
 RMSU=  2.48D-08    CP:  5.95D-01  3.00D+00  1.19D+00  7.68D-01  1.16D+00
                    CP:  1.39D+00  1.06D+00  1.48D+00  1.44D+00  1.46D+00
                    CP:  1.17D+00  1.27D+00  1.51D+00  1.12D+00
 E= -731.387927933788     Delta-E=       -0.000000000079 Rises=F Damp=F
 DIIS: error= 1.05D-07 at cycle  15 NSaved=  15.
 NSaved=15 IEnMin=15 EnMin= -731.387927933788     IErMin=15 ErrMin= 1.05D-07
 ErrMax= 1.05D-07  0.00D+00 EMaxC= 1.00D-01 BMatC= 1.13D-12 BMatP= 4.94D-12
 IDIUse=1 WtCom= 1.00D+00 WtEn= 0.00D+00
 Coeff-Com: -0.209D-05 0.325D-05 0.928D-05 0.350D-04 0.880D-04-0.915D-04
 Coeff-Com: -0.822D-03-0.607D-03 0.380D-02 0.101D-01-0.111D-01-0.780D-01
 Coeff-Com: -0.108D+00 0.308D+00 0.876D+00
 Coeff:     -0.209D-05 0.325D-05 0.928D-05 0.350D-04 0.880D-04-0.915D-04
 Coeff:     -0.822D-03-0.607D-03 0.380D-02 0.101D-01-0.111D-01-0.780D-01
 Coeff:     -0.108D+00 0.308D+00 0.876D+00
 Gap=     0.282 Goal=   None    Shift=    0.000
 RMSDP=2.93D-08 MaxDP=1.93D-06 DE=-7.89D-11 OVMax= 1.79D-06

 Cycle  16  Pass 1  IDiag  1:
 RMSU=  1.28D-08    CP:  5.95D-01  3.00D+00  1.19D+00  7.68D-01  1.16D+00
                    CP:  1.39D+00  1.06D+00  1.48D+00  1.45D+00  1.46D+00
                    CP:  1.17D+00  1.29D+00  1.58D+00  1.19D+00  1.38D+00
 E= -731.387927933724     Delta-E=        0.000000000063 Rises=F Damp=F
 DIIS: error= 3.06D-08 at cycle  16 NSaved=  16.
 NSaved=16 IEnMin=15 EnMin= -731.387927933788     IErMin=16 ErrMin= 3.06D-08
 ErrMax= 3.06D-08  0.00D+00 EMaxC= 1.00D-01 BMatC= 1.61D-13 BMatP= 1.13D-12
 IDIUse=1 WtCom= 1.00D+00 WtEn= 0.00D+00
 Coeff-Com: -0.999D-07 0.282D-06 0.374D-05 0.124D-04 0.364D-04-0.674D-05
 Coeff-Com: -0.246D-03-0.292D-03 0.516D-03 0.344D-02 0.439D-02-0.100D-01
 Coeff-Com: -0.685D-01-0.591D-01 0.231D+00 0.899D+00
 Coeff:     -0.999D-07 0.282D-06 0.374D-05 0.124D-04 0.364D-04-0.674D-05
 Coeff:     -0.246D-03-0.292D-03 0.516D-03 0.344D-02 0.439D-02-0.100D-01
 Coeff:     -0.685D-01-0.591D-01 0.231D+00 0.899D+00
 Gap=     0.282 Goal=   None    Shift=    0.000
 RMSDP=1.45D-08 MaxDP=1.21D-06 DE= 6.34D-11 OVMax= 5.04D-07

 Cycle  17  Pass 1  IDiag  1:
 RMSU=  3.79D-09    CP:  5.95D-01  3.00D+00  1.19D+00  7.68D-01  1.16D+00
                    CP:  1.39D+00  1.06D+00  1.48D+00  1.45D+00  1.46D+00
                    CP:  1.17D+00  1.29D+00  1.58D+00  1.20D+00  1.58D+00
                    CP:  1.32D+00
 E= -731.387927933724     Delta-E=        0.000000000000 Rises=F Damp=F
 DIIS: error= 1.08D-08 at cycle  17 NSaved=  17.
 NSaved=17 IEnMin=15 EnMin= -731.387927933788     IErMin=17 ErrMin= 1.08D-08
 ErrMax= 1.08D-08  0.00D+00 EMaxC= 1.00D-01 BMatC= 3.57D-14 BMatP= 1.61D-13
 IDIUse=1 WtCom= 1.00D+00 WtEn= 0.00D+00
 Coeff-Com:  0.250D-06-0.362D-06-0.446D-06-0.222D-05-0.313D-05 0.149D-04
 Coeff-Com:  0.744D-04-0.394D-04-0.662D-03-0.577D-03 0.408D-02 0.123D-01
 Coeff-Com: -0.847D-02-0.899D-01-0.693D-01 0.393D+00 0.759D+00
 Coeff:      0.250D-06-0.362D-06-0.446D-06-0.222D-05-0.313D-05 0.149D-04
 Coeff:      0.744D-04-0.394D-04-0.662D-03-0.577D-03 0.408D-02 0.123D-01
 Coeff:     -0.847D-02-0.899D-01-0.693D-01 0.393D+00 0.759D+00
 Gap=     0.282 Goal=   None    Shift=    0.000
 RMSDP=5.43D-09 MaxDP=5.11D-07 DE=-2.27D-13 OVMax= 1.72D-07

 SCF Done:  E(RwB97XD) =  -731.387927934     A.U. after   17 cycles
            NFock= 17  Conv=0.54D-08     -V/T= 2.0044
 KE= 7.281632982655D+02 PE=-3.581264727345D+03 EE= 1.186319822613D+03
 Leave Link  502 at Fri Nov  3 00:14:34 2017, MaxMem=  3758096384 cpu:      1108.9
 (Enter /share/apps/gaussian/g09_D01/g09/l801.exe)
 DoSCS=F DFT=T ScalE2(SS,OS)=  1.000000  1.000000
 ExpMin= 3.60D-02 ExpMax= 1.14D+04 ExpMxC= 1.72D+03 IAcc=3 IRadAn=         5 AccDes= 0.00D+00
 HarFok:  IExCor=  205 AccDes= 0.00D+00 IRadAn=         5 IDoV=-2 UseB2=F ITyADJ=14
 ICtDFT= 12500011 ScaDFX=  1.000000  1.000000  1.000000  1.000000
 Largest valence mixing into a core orbital is  5.74D-05
 Largest core mixing into a valence orbital is  1.60D-05
 Range of M.O.s used for correlation:    16   411
 NBasis=   414 NAE=    55 NBE=    55 NFC=    15 NFV=     0
 NROrb=    396 NOA=    40 NOB=    40 NVA=   356 NVB=   356

 **** Warning!!: The largest alpha MO coefficient is  0.13460062D+03

 Leave Link  801 at Fri Nov  3 00:14:34 2017, MaxMem=  3758096384 cpu:         1.1
 (Enter /share/apps/gaussian/g09_D01/g09/l914.exe)
 RHF ground state
 MDV=  3758096384 DFT=T DoStab=F Mixed=T DoRPA=T DoScal=F NonHer=T
 Would need an additional         18445000000 words for in-memory AO integral storage.
 Making orbital integer symmetry assigments:
    16 initial guesses have been made.
 Convergence on wavefunction:    0.001000000000000
 Davidson Disk Diagonalization:  ConvIn= 1.00D-03 SkipCon=T Conv= 1.00D-03.
 Max sub-space:   200 roots to seek:    16 dimension of matrix:        28480
 Iteration     1 Dimension    16 NMult     0 NNew     16
 CISAX will form    16 AO SS matrices at one time.
 NMat=    16 NSing=    16 JSym2X= 0.
 FoFJK:  IHMeth= 1 ICntrl=       0 DoSepK=T KAlg= 0 I1Cent=   0 FoldK=F
 IRaf=         1 NMat=  32 IRICut=       1 DoRegI=T DoRafI=F ISym2E= 0.
 FoFCou: FMM=F IPFlag=           0 FMFlag=      100000 FMFlg1=           0
         NFxFlg=           0 DoJE=F BraDBF=F KetDBF=F FulRan=T
         wScrn=  0.000000 ICntrl=     500 IOpCl=  0 I1Cent=           0 NGrid=           0
         NMat0=   16 NMatS0=     16 NMatT0=    0 NMatD0=   16 NMtDS0=    0 NMtDT0=    0
 Symmetry not used in FoFCou.
 New state      2 was old state      7
 New state      3 was old state      2
 New state      4 was old state      3
 Excitation Energies [eV] at current iteration:
 Root      1 :     4.496809306911117
 Root      2 :     4.522389533497546
 Root      3 :     5.298708631199339
 Root      4 :     5.856687535656880
 Root      5 :     5.925650584990509
 Root      6 :     6.343947695077883
 Root      7 :     6.607580503027478
 Root      8 :     6.629211832008506
 Root      9 :     6.878884431885584
 Root     10 :     6.908393929607662
 Root     11 :     7.080934113840350
 Root     12 :     7.148283794481863
 Root     13 :     7.300937942888694
 Root     14 :     7.529939916212797
 Root     15 :     7.816984236036856
 Root     16 :     7.927538035194393
 Iteration     2 Dimension    24 NMult    16 NNew      8
 CISAX will form     8 AO SS matrices at one time.
 NMat=     8 NSing=     8 JSym2X= 0.
 Root      1 not converged, maximum delta is    0.123344579121094
 Root      2 not converged, maximum delta is    0.112078973441672
 Root      3 not converged, maximum delta is    0.094168576904354
 Root      4 not converged, maximum delta is    0.101181962085648
 Excitation Energies [eV] at current iteration:
 Root      1 :     3.997016081366509   Change is   -0.499793225544607
 Root      2 :     4.247072287535285   Change is   -0.275317245962261
 Root      3 :     4.607688156417663   Change is   -0.691020474781676
 Root      4 :     5.580480028781343   Change is   -0.276207506875537
 Iteration     3 Dimension    32 NMult    24 NNew      8
 CISAX will form     8 AO SS matrices at one time.
 NMat=     8 NSing=     8 JSym2X= 0.
 Root      1 not converged, maximum delta is    0.027489355446562
 Root      2 not converged, maximum delta is    0.011626521373186
 Root      3 not converged, maximum delta is    0.044272363873327
 Root      4 not converged, maximum delta is    0.439956817115719
 Excitation Energies [eV] at current iteration:
 Root      1 :     3.953196270448652   Change is   -0.043819810917857
 Root      2 :     4.231954353468041   Change is   -0.015117934067245
 Root      3 :     4.548746157349718   Change is   -0.058941999067945
 Root      4 :     5.468460018715165   Change is   -0.112020010066179
 Iteration     4 Dimension    40 NMult    32 NNew      8
 CISAX will form     8 AO SS matrices at one time.
 NMat=     8 NSing=     8 JSym2X= 0.
 Root      1 not converged, maximum delta is    0.013111205240301
 Root      2 not converged, maximum delta is    0.004407674949275
 Root      3 not converged, maximum delta is    0.013294969754684
 Root      4 not converged, maximum delta is    0.187828041727982
 Excitation Energies [eV] at current iteration:
 Root      1 :     3.943883853987294   Change is   -0.009312416461358
 Root      2 :     4.230825248558853   Change is   -0.001129104909188
 Root      3 :     4.535852043530897   Change is   -0.012894113818820
 Root      4 :     5.228595397163077   Change is   -0.239864621552087
 Iteration     5 Dimension    48 NMult    40 NNew      8
 CISAX will form     8 AO SS matrices at one time.
 NMat=     8 NSing=     8 JSym2X= 0.
 Root      1 not converged, maximum delta is    0.003580274599986
 Root      2 not converged, maximum delta is    0.001621669941175
 Root      3 not converged, maximum delta is    0.004481783014630
 Root      4 not converged, maximum delta is    0.034824916990117
 Excitation Energies [eV] at current iteration:
 Root      1 :     3.942912331091590   Change is   -0.000971522895704
 Root      2 :     4.230706942320802   Change is   -0.000118306238050
 Root      3 :     4.534353323318199   Change is   -0.001498720212698
 Root      4 :     5.192730133884289   Change is   -0.035865263278789
 Iteration     6 Dimension    56 NMult    48 NNew      8
 CISAX will form     8 AO SS matrices at one time.
 NMat=     8 NSing=     8 JSym2X= 0.
 Root      1 has converged.
 Root      2 has converged.
 Root      3 not converged, maximum delta is    0.001410729761218
 Root      4 not converged, maximum delta is    0.010133696911545
 Excitation Energies [eV] at current iteration:
 Root      1 :     3.942811732323104   Change is   -0.000100598768487
 Root      2 :     4.230696234810468   Change is   -0.000010707510334
 Root      3 :     4.534213358030326   Change is   -0.000139965287874
 Root      4 :     5.188268829723215   Change is   -0.004461304161073
 Iteration     7 Dimension    60 NMult    56 NNew      4
 CISAX will form     4 AO SS matrices at one time.
 NMat=     4 NSing=     4 JSym2X= 0.
 Root      1 has converged.
 Root      2 has converged.
 Root      3 has converged.
 Root      4 not converged, maximum delta is    0.002540362636347
 Excitation Energies [eV] at current iteration:
 Root      1 :     3.942808306411089   Change is   -0.000003425912015
 Root      2 :     4.230696148926832   Change is   -0.000000085883636
 Root      3 :     4.534195844068405   Change is   -0.000017513961920
 Root      4 :     5.187807394547510   Change is   -0.000461435175705
 Iteration     8 Dimension    62 NMult    60 NNew      2
 CISAX will form     2 AO SS matrices at one time.
 NMat=     2 NSing=     2 JSym2X= 0.
 Root      1 has converged.
 Root      2 has converged.
 Root      3 has converged.
 Root      4 has converged.
 Excitation Energies [eV] at current iteration:
 Root      1 :     3.942808292464365   Change is   -0.000000013946724
 Root      2 :     4.230696139046183   Change is   -0.000000009880649
 Root      3 :     4.534195758347462   Change is   -0.000000085720943
 Root      4 :     5.187762696647255   Change is   -0.000044697900256
 Convergence achieved on expansion vectors.
 ***********************************************************************
 Excited states from <AA,BB:AA,BB> singles matrix:
 ***********************************************************************
 
 1PDM for each excited state written to RWF  633
 Ground to excited state transition densities written to RWF  633
 Ground to excited state transition electric dipole moments (Au):
       state          X           Y           Z        Dip. S.      Osc.
         1         0.7690      0.3910      2.2589      5.8470      0.5648
         2         0.0396     -0.0025      0.0355      0.0028      0.0003
         3         0.4539      0.1899      1.2676      1.8490      0.2054
         4         0.0352      0.4359     -0.2764      0.2676      0.0340
 Ground to excited state transition velocity dipole moments (Au):
       state          X           Y           Z        Dip. S.      Osc.
         1        -0.1110     -0.0586     -0.3242      0.1209      0.5561
         2        -0.0066      0.0006     -0.0051      0.0001      0.0003
         3        -0.0736     -0.0289     -0.2067      0.0490      0.1960
         4        -0.0092     -0.0809      0.0421      0.0084      0.0294
 Ground to excited state transition magnetic dipole moments (Au):
       state          X           Y           Z
         1         7.1995     -1.2270     -2.2463
         2         0.1757      0.3854     -0.1857
         3         3.3756     -0.5122     -1.1705
         4        -0.5432      0.0786     -0.0291
 Ground to excited state transition velocity quadrupole moments (Au):
       state          XX          YY          ZZ          XY          XZ          YZ
         1         0.7785      2.2734     -0.6273      2.4869      0.9611      6.7938
         2         0.0315     -0.0089     -0.0049      0.1086      0.0205      0.1204
         3         0.7047      1.0912      0.9748      1.7489      1.1330      4.8222
         4         0.1033      3.3185      0.7793      0.4440      0.0885     -0.9590
 <0|del|b> * <b|rxdel|0> + <0|del|b> * <b|delr+rdel|0>
 Rotatory Strengths (R) in cgs (10**-40 erg-esu-cm/Gauss)
       state          XX          YY          ZZ    R(velocity)    E-M Angle
         1       122.3031    -46.6078    -71.9127      1.2608       89.98
         2         1.3704     -1.0268     -0.3001      0.0145       90.00
         3      -152.6683     -0.1170    187.8744     11.6964       89.41
         4        33.9245    -11.2232    -32.2087     -3.1691       92.92
 1/2[<0|r|b>*<b|rxdel|0> + (<0|rxdel|b>*<b|r|0>)*]
 Rotatory Strengths (R) in cgs (10**-40 erg-esu-cm/Gauss)
       state          XX          YY          ZZ     R(length)
         1     -3915.0339    339.2603   3588.2609      4.1625
         2        -4.9221      0.6772      4.6636      0.1396
         3     -1083.5920     68.7907   1049.2877     11.4955
         4        13.5314    -24.2179     -5.6934     -5.4600
  1/2[<0|del|b>*<b|r|0> + (<0|r|b>*<b|del|0>)*] (Au)
       state          X           Y           Z        Dip. S.   Osc.(frdel)
         1        -0.0854     -0.0229     -0.7323      0.8406      0.5604
         2        -0.0003      0.0000     -0.0002      0.0004      0.0003
         3        -0.0334     -0.0055     -0.2620      0.3010      0.2006
         4        -0.0003     -0.0353     -0.0116      0.0472      0.0315

 Excitation energies and oscillator strengths:
 
 Excited state symmetry could not be determined.
 Excited State   1:      Singlet-?Sym    3.9428 eV  314.46 nm  f=0.5648  <S**2>=0.000
      55 -> 56         0.68253
      55 -> 60        -0.10143
 This state for optimization and/or second-order correction.
 Total Energy, E(TD-HF/TD-KS) =  -731.243032389    
 Copying the excited state density for this state as the 1-particle RhoCI density.
 
 Excited state symmetry could not be determined.
 Excited State   2:      Singlet-?Sym    4.2307 eV  293.06 nm  f=0.0003  <S**2>=0.000
      52 -> 56         0.68595
 
 Excited state symmetry could not be determined.
 Excited State   3:      Singlet-?Sym    4.5342 eV  273.44 nm  f=0.2054  <S**2>=0.000
      54 -> 56         0.67248
      55 -> 60         0.14196
 
 Excited state symmetry could not be determined.
 Excited State   4:      Singlet-?Sym    5.1878 eV  238.99 nm  f=0.0340  <S**2>=0.000
      53 -> 56         0.56988
      54 -> 60         0.17450
      55 -> 60        -0.25053
      55 -> 61         0.12064
      55 -> 65        -0.14666
 SavETr:  write IOETrn=   770 NScale= 10 NData=  16 NLR=1 NState=    4 LETran=      82.
 Leave Link  914 at Fri Nov  3 00:26:15 2017, MaxMem=  3758096384 cpu:      2800.6
 (Enter /share/apps/gaussian/g09_D01/g09/l601.exe)
 Copying SCF densities to generalized density rwf, IOpCl= 0 IROHF=0.

 **********************************************************************

            Population analysis using the SCF density.

 **********************************************************************

 Alpha  occ. eigenvalues --  -24.81192 -19.23997 -19.23194 -14.50687 -10.38477
 Alpha  occ. eigenvalues --  -10.38273 -10.36418 -10.36169 -10.35316 -10.35081
 Alpha  occ. eigenvalues --  -10.31162 -10.29995 -10.29321 -10.28776 -10.28734
 Alpha  occ. eigenvalues --   -1.31739  -1.14940  -1.10893  -1.10096  -0.96478
 Alpha  occ. eigenvalues --   -0.90444  -0.86972  -0.86187  -0.84772  -0.81331
 Alpha  occ. eigenvalues --   -0.74141  -0.71453  -0.69826  -0.66123  -0.63719
 Alpha  occ. eigenvalues --   -0.63037  -0.60668  -0.59541  -0.59346  -0.57784
 Alpha  occ. eigenvalues --   -0.55211  -0.54676  -0.53122  -0.52645  -0.52589
 Alpha  occ. eigenvalues --   -0.52307  -0.51061  -0.50559  -0.50271  -0.49202
 Alpha  occ. eigenvalues --   -0.47513  -0.46542  -0.45672  -0.43011  -0.42610
 Alpha  occ. eigenvalues --   -0.41713  -0.34377  -0.33603  -0.31173  -0.29098
 Alpha virt. eigenvalues --   -0.00938   0.02136   0.03750   0.04911   0.05062
 Alpha virt. eigenvalues --    0.05416   0.06131   0.06659   0.07362   0.07528
 Alpha virt. eigenvalues --    0.07661   0.07982   0.08930   0.10206   0.10886
 Alpha virt. eigenvalues --    0.11306   0.12292   0.12655   0.12840   0.13074
 Alpha virt. eigenvalues --    0.13567   0.14107   0.14412   0.14784   0.15761
 Alpha virt. eigenvalues --    0.16205   0.16273   0.16678   0.16752   0.17113
 Alpha virt. eigenvalues --    0.17902   0.18036   0.18332   0.18791   0.18885
 Alpha virt. eigenvalues --    0.19429   0.19613   0.20291   0.20998   0.21256
 Alpha virt. eigenvalues --    0.21431   0.21606   0.22074   0.22490   0.23055
 Alpha virt. eigenvalues --    0.23723   0.23885   0.23996   0.24922   0.25318
 Alpha virt. eigenvalues --    0.25575   0.26274   0.26746   0.26821   0.27253
 Alpha virt. eigenvalues --    0.27703   0.28083   0.28581   0.29187   0.29466
 Alpha virt. eigenvalues --    0.30081   0.30807   0.31785   0.32206   0.32771
 Alpha virt. eigenvalues --    0.33204   0.33352   0.34120   0.34859   0.35400
 Alpha virt. eigenvalues --    0.36033   0.36629   0.37239   0.37516   0.37742
 Alpha virt. eigenvalues --    0.38896   0.39003   0.39752   0.40044   0.40618
 Alpha virt. eigenvalues --    0.40937   0.42534   0.42799   0.43387   0.44067
 Alpha virt. eigenvalues --    0.44388   0.44675   0.45305   0.46667   0.46882
 Alpha virt. eigenvalues --    0.49182   0.49469   0.49887   0.50150   0.50851
 Alpha virt. eigenvalues --    0.51605   0.52562   0.53919   0.54328   0.55803
 Alpha virt. eigenvalues --    0.57227   0.59296   0.59952   0.61425   0.62851
 Alpha virt. eigenvalues --    0.63213   0.63670   0.65132   0.65369   0.65975
 Alpha virt. eigenvalues --    0.66646   0.67237   0.67737   0.68580   0.69182
 Alpha virt. eigenvalues --    0.69549   0.69815   0.70203   0.70566   0.71514
 Alpha virt. eigenvalues --    0.72889   0.73904   0.74651   0.75424   0.75852
 Alpha virt. eigenvalues --    0.76648   0.77446   0.79164   0.79735   0.80096
 Alpha virt. eigenvalues --    0.81005   0.81674   0.84290   0.85743   0.86721
 Alpha virt. eigenvalues --    0.87962   0.88994   0.91364   0.92832   0.93943
 Alpha virt. eigenvalues --    0.94449   0.96267   0.96664   0.97531   0.97863
 Alpha virt. eigenvalues --    0.98548   1.01501   1.02650   1.03770   1.04142
 Alpha virt. eigenvalues --    1.04614   1.05314   1.07323   1.08050   1.09786
 Alpha virt. eigenvalues --    1.10826   1.11656   1.12324   1.13306   1.14512
 Alpha virt. eigenvalues --    1.16123   1.16946   1.17486   1.18954   1.19871
 Alpha virt. eigenvalues --    1.21001   1.23557   1.25881   1.28773   1.31420
 Alpha virt. eigenvalues --    1.32670   1.34225   1.34868   1.36085   1.37578
 Alpha virt. eigenvalues --    1.39631   1.41818   1.43077   1.47510   1.48741
 Alpha virt. eigenvalues --    1.49615   1.52394   1.52846   1.53519   1.54045
 Alpha virt. eigenvalues --    1.55796   1.56690   1.57414   1.59248   1.60436
 Alpha virt. eigenvalues --    1.61567   1.62107   1.62492   1.63723   1.64138
 Alpha virt. eigenvalues --    1.64239   1.64765   1.66687   1.68478   1.68925
 Alpha virt. eigenvalues --    1.71150   1.71442   1.74017   1.74511   1.75604
 Alpha virt. eigenvalues --    1.76745   1.78783   1.79952   1.80701   1.81604
 Alpha virt. eigenvalues --    1.83699   1.84411   1.85842   1.86362   1.89819
 Alpha virt. eigenvalues --    1.91931   1.95018   1.96483   1.97101   1.98024
 Alpha virt. eigenvalues --    1.99819   2.00478   2.02066   2.03622   2.04713
 Alpha virt. eigenvalues --    2.05358   2.05982   2.06952   2.07789   2.09188
 Alpha virt. eigenvalues --    2.10448   2.12977   2.15772   2.16790   2.17302
 Alpha virt. eigenvalues --    2.17654   2.19646   2.21756   2.22275   2.22797
 Alpha virt. eigenvalues --    2.25220   2.29547   2.30574   2.36052   2.38312
 Alpha virt. eigenvalues --    2.40540   2.41704   2.44941   2.45515   2.48588
 Alpha virt. eigenvalues --    2.49654   2.51008   2.53313   2.54323   2.57106
 Alpha virt. eigenvalues --    2.57559   2.59930   2.62245   2.62817   2.66255
 Alpha virt. eigenvalues --    2.68891   2.69854   2.70899   2.72979   2.74842
 Alpha virt. eigenvalues --    2.75089   2.76702   2.78978   2.81190   2.82685
 Alpha virt. eigenvalues --    2.83584   2.84212   2.84640   2.85536   2.89230
 Alpha virt. eigenvalues --    2.89421   2.92551   2.93075   2.93596   2.96660
 Alpha virt. eigenvalues --    2.97478   2.97974   2.99943   3.03171   3.06556
 Alpha virt. eigenvalues --    3.10343   3.12022   3.14146   3.17711   3.19259
 Alpha virt. eigenvalues --    3.21157   3.22264   3.24997   3.27730   3.30411
 Alpha virt. eigenvalues --    3.31124   3.34238   3.36901   3.41129   3.47030
 Alpha virt. eigenvalues --    3.50582   3.53849   3.56596   3.60997   3.65775
 Alpha virt. eigenvalues --    3.66436   3.69369   3.71244   3.76350   3.77181
 Alpha virt. eigenvalues --    3.79857   3.80299   3.81997   3.87937   3.88676
 Alpha virt. eigenvalues --    3.91434   3.92489   3.95732   4.03011   4.06121
 Alpha virt. eigenvalues --    4.07247   4.11307   4.16910   4.19903   4.28074
 Alpha virt. eigenvalues --    4.31863   4.39744   4.64317   4.91591   4.94889
 Alpha virt. eigenvalues --    4.95215   5.15202   5.16151   5.18381   5.36582
 Alpha virt. eigenvalues --    5.66293   5.83664   5.99159   6.44778   6.57224
 Alpha virt. eigenvalues --    6.83823  23.69254  23.90447  24.01098  24.02480
 Alpha virt. eigenvalues --   24.02993  24.03432  24.05768  24.13209  24.21432
 Alpha virt. eigenvalues --   24.23215  24.29326  35.68757  50.14106  50.17659
 Alpha virt. eigenvalues --   66.95280
          Condensed to atoms (all electrons):
               1          2          3          4          5          6
     1  H    0.554986   0.404589  -0.020706  -0.064631  -0.046158  -0.006040
     2  C    0.404589   5.201512   0.405433   0.399741   0.277969  -0.069152
     3  H   -0.020706   0.405433   0.532430  -0.026390  -0.099847  -0.002176
     4  H   -0.064631   0.399741  -0.026390   0.552567  -0.050072   0.006117
     5  N   -0.046158   0.277969  -0.099847  -0.050072   6.855189   0.231980
     6  C   -0.006040  -0.069152  -0.002176   0.006117   0.231980   5.238648
     7  C   -0.017284  -0.068213   0.063699  -0.026838   0.192222   0.077456
     8  H    0.002962  -0.002689  -0.001041  -0.000963  -0.048203   0.415914
     9  H   -0.005705   0.006530   0.003664  -0.005897  -0.049921   0.387384
    10  H   -0.001632   0.006601  -0.002379   0.002555  -0.038286   0.414072
    11  H    0.001142  -0.043478  -0.009035   0.003512  -0.063999   0.006706
    12  C    0.011215  -0.095474  -0.000469   0.013252  -0.225285   0.164195
    13  H    0.000599  -0.009641  -0.002789   0.000947  -0.031740   0.012637
    14  C    0.001761  -0.107063   0.010215   0.002888  -0.026274  -0.206342
    15  C    0.001402   0.018401   0.006817  -0.001024  -0.016458  -0.218694
    16  O    0.000078   0.001651   0.000179  -0.000046   0.003484  -0.001563
    17  C    0.000171  -0.015960  -0.004688   0.000972  -0.003963   0.011498
    18  C   -0.000026  -0.000973   0.003983  -0.000552   0.001872  -0.027029
    19  H    0.000038  -0.000171   0.000090   0.000016   0.000162  -0.001322
    20  H   -0.000073  -0.002292   0.000390  -0.000059  -0.005468   0.007234
    21  C    0.000015   0.000766  -0.000386   0.000062  -0.000381  -0.001106
    22  C   -0.000006  -0.000531   0.000014  -0.000001  -0.000021   0.008674
    23  O    0.000006   0.000501  -0.000142   0.000009  -0.000160  -0.000028
    24  H    0.000005   0.000097   0.000002   0.000000   0.000177  -0.001022
    25  C    0.000003  -0.000464  -0.000010  -0.000001  -0.000260  -0.002297
    26  H    0.000000   0.000020  -0.000001   0.000001  -0.000024   0.000082
    27  F    0.000000   0.000000   0.000000   0.000000   0.000000   0.000007
               7          8          9         10         11         12
     1  H   -0.017284   0.002962  -0.005705  -0.001632   0.001142   0.011215
     2  C   -0.068213  -0.002689   0.006530   0.006601  -0.043478  -0.095474
     3  H    0.063699  -0.001041   0.003664  -0.002379  -0.009035  -0.000469
     4  H   -0.026838  -0.000963  -0.005897   0.002555   0.003512   0.013252
     5  N    0.192222  -0.048203  -0.049921  -0.038286  -0.063999  -0.225285
     6  C    0.077456   0.415914   0.387384   0.414072   0.006706   0.164195
     7  C   12.642320  -0.013578   0.026733   0.056899   0.276001   1.753579
     8  H   -0.013578   0.518237  -0.016930  -0.051036  -0.000810  -0.005516
     9  H    0.026733  -0.016930   0.483198  -0.021583  -0.000994   0.020317
    10  H    0.056899  -0.051036  -0.021583   0.532903   0.001214  -0.040659
    11  H    0.276001  -0.000810  -0.000994   0.001214   0.456118   0.106452
    12  C    1.753579  -0.005516   0.020317  -0.040659   0.106452  12.366280
    13  H    0.006307  -0.010378   0.001312   0.008573   0.004086   0.491855
    14  C   -3.938053   0.011498  -0.018876  -0.034320   0.102929   1.756694
    15  C   -2.276086   0.002414  -0.006853  -0.008382  -0.078217  -5.029733
    16  O    0.037710   0.000335   0.000029   0.000384   0.003907  -0.308284
    17  C   -1.912860   0.002528  -0.004406  -0.007968   0.043229  -0.139196
    18  C   -1.124704  -0.000804   0.000289  -0.001919  -0.056364  -3.925035
    19  H   -0.034673   0.000073  -0.000132  -0.000071   0.000608  -0.014037
    20  H   -0.140346  -0.000695   0.000495  -0.005267   0.001558   0.025958
    21  C    0.045870   0.001111  -0.000364   0.001443   0.002742  -0.285504
    22  C   -0.104186  -0.000813   0.000423  -0.001084   0.001912   0.336793
    23  O    0.025574   0.000050  -0.000005   0.000021   0.000608  -0.023324
    24  H    0.005951   0.000028  -0.000066   0.000200  -0.000247  -0.016987
    25  C   -0.174398   0.000300  -0.000110  -0.000289  -0.000698  -0.460947
    26  H   -0.000152  -0.000008   0.000004  -0.000016  -0.000111  -0.000301
    27  F    0.000379   0.000001   0.000000   0.000000   0.000012   0.002599
              13         14         15         16         17         18
     1  H    0.000599   0.001761   0.001402   0.000078   0.000171  -0.000026
     2  C   -0.009641  -0.107063   0.018401   0.001651  -0.015960  -0.000973
     3  H   -0.002789   0.010215   0.006817   0.000179  -0.004688   0.003983
     4  H    0.000947   0.002888  -0.001024  -0.000046   0.000972  -0.000552
     5  N   -0.031740  -0.026274  -0.016458   0.003484  -0.003963   0.001872
     6  C    0.012637  -0.206342  -0.218694  -0.001563   0.011498  -0.027029
     7  C    0.006307  -3.938053  -2.276086   0.037710  -1.912860  -1.124704
     8  H   -0.010378   0.011498   0.002414   0.000335   0.002528  -0.000804
     9  H    0.001312  -0.018876  -0.006853   0.000029  -0.004406   0.000289
    10  H    0.008573  -0.034320  -0.008382   0.000384  -0.007968  -0.001919
    11  H    0.004086   0.102929  -0.078217   0.003907   0.043229  -0.056364
    12  C    0.491855   1.756694  -5.029733  -0.308284  -0.139196  -3.925035
    13  H    0.665028  -0.003885  -0.096600  -0.010251  -0.043105  -0.002416
    14  C   -0.003885  12.174017   0.706774   0.795836   1.403152  -5.139375
    15  C   -0.096600   0.706774  18.861082  -0.058180  -4.968300   2.534261
    16  O   -0.010251   0.795836  -0.058180   8.183782  -0.188652  -0.146089
    17  C   -0.043105   1.403152  -4.968300  -0.188652  14.365224  -4.381904
    18  C   -0.002416  -5.139375   2.534261  -0.146089  -4.381904  17.966192
    19  H   -0.000710   0.016500  -0.065108   0.095470   0.053469  -0.007223
    20  H   -0.026734   0.042930  -0.321180  -0.002033   0.731947  -0.056874
    21  C   -0.044788  -0.374614  -1.203459   0.002901   0.841407   0.572825
    22  C   -0.016923   0.066150  -3.210520  -0.033802   1.822959  -1.032772
    23  O   -0.000473  -0.027200   0.034406   0.016750  -0.027459   0.318128
    24  H    0.004699  -0.019886   0.136508   0.000594  -0.063287   0.072964
    25  C   -0.010155  -0.704662  -0.747276  -0.011265   0.049388   0.295962
    26  H   -0.000868   0.004971  -0.077645  -0.000596   0.032312  -0.051032
    27  F   -0.000312   0.004611   0.008634  -0.000019  -0.054164  -0.077996
              19         20         21         22         23         24
     1  H    0.000038  -0.000073   0.000015  -0.000006   0.000006   0.000005
     2  C   -0.000171  -0.002292   0.000766  -0.000531   0.000501   0.000097
     3  H    0.000090   0.000390  -0.000386   0.000014  -0.000142   0.000002
     4  H    0.000016  -0.000059   0.000062  -0.000001   0.000009   0.000000
     5  N    0.000162  -0.005468  -0.000381  -0.000021  -0.000160   0.000177
     6  C   -0.001322   0.007234  -0.001106   0.008674  -0.000028  -0.001022
     7  C   -0.034673  -0.140346   0.045870  -0.104186   0.025574   0.005951
     8  H    0.000073  -0.000695   0.001111  -0.000813   0.000050   0.000028
     9  H   -0.000132   0.000495  -0.000364   0.000423  -0.000005  -0.000066
    10  H   -0.000071  -0.005267   0.001443  -0.001084   0.000021   0.000200
    11  H    0.000608   0.001558   0.002742   0.001912   0.000608  -0.000247
    12  C   -0.014037   0.025958  -0.285504   0.336793  -0.023324  -0.016987
    13  H   -0.000710  -0.026734  -0.044788  -0.016923  -0.000473   0.004699
    14  C    0.016500   0.042930  -0.374614   0.066150  -0.027200  -0.019886
    15  C   -0.065108  -0.321180  -1.203459  -3.210520   0.034406   0.136508
    16  O    0.095470  -0.002033   0.002901  -0.033802   0.016750   0.000594
    17  C    0.053469   0.731947   0.841407   1.822959  -0.027459  -0.063287
    18  C   -0.007223  -0.056874   0.572825  -1.032772   0.318128   0.072964
    19  H    0.260351   0.001816   0.018538   0.034742   0.203703   0.000529
    20  H    0.001816   0.608366  -0.127061   0.164277  -0.002770  -0.032329
    21  C    0.018538  -0.127061   9.263351  -2.557066   0.014712   0.518184
    22  C    0.034742   0.164277  -2.557066  11.434597  -0.363620  -0.140024
    23  O    0.203703  -0.002770   0.014712  -0.363620   8.212005   0.000432
    24  H    0.000529  -0.032329   0.518184  -0.140024   0.000432   0.479927
    25  C    0.003338   0.050466   0.058487  -0.567486   0.000792  -0.172252
    26  H    0.000409   0.003813  -0.082684   0.672263  -0.017456  -0.002291
    27  F   -0.000136   0.002625  -0.202927  -0.214641  -0.000358  -0.023970
              25         26         27
     1  H    0.000003   0.000000   0.000000
     2  C   -0.000464   0.000020   0.000000
     3  H   -0.000010  -0.000001   0.000000
     4  H   -0.000001   0.000001   0.000000
     5  N   -0.000260  -0.000024   0.000000
     6  C   -0.002297   0.000082   0.000007
     7  C   -0.174398  -0.000152   0.000379
     8  H    0.000300  -0.000008   0.000001
     9  H   -0.000110   0.000004   0.000000
    10  H   -0.000289  -0.000016   0.000000
    11  H   -0.000698  -0.000111   0.000012
    12  C   -0.460947  -0.000301   0.002599
    13  H   -0.010155  -0.000868  -0.000312
    14  C   -0.704662   0.004971   0.004611
    15  C   -0.747276  -0.077645   0.008634
    16  O   -0.011265  -0.000596  -0.000019
    17  C    0.049388   0.032312  -0.054164
    18  C    0.295962  -0.051032  -0.077996
    19  H    0.003338   0.000409  -0.000136
    20  H    0.050466   0.003813   0.002625
    21  C    0.058487  -0.082684  -0.202927
    22  C   -0.567486   0.672263  -0.214641
    23  O    0.000792  -0.017456  -0.000358
    24  H   -0.172252  -0.002291  -0.023970
    25  C    8.611041  -0.174996   0.608231
    26  H   -0.174996   0.452964  -0.019756
    27  F    0.608231  -0.019756   9.132330
 Mulliken charges:
               1
     1  H    0.183289
     2  C   -0.307712
     3  H    0.143142
     4  H    0.193834
     5  N    0.143465
     6  C   -0.445833
     7  C    0.620673
     8  H    0.198015
     9  H    0.201461
    10  H    0.190028
    11  H    0.241217
    12  C   -0.478438
    13  H    0.115727
    14  C   -0.500375
    15  C    2.073015
    16  O   -0.382309
    17  C   -1.542343
    18  C    0.266613
    19  H    0.433733
    20  H    0.081308
    21  C   -0.462075
    22  C   -0.299308
    23  O   -0.364701
    24  H    0.252063
    25  C   -0.650440
    26  H    0.261099
    27  F   -0.165150
 Sum of Mulliken charges =   0.00000
 Mulliken charges with hydrogens summed into heavy atoms:
               1
     2  C    0.212554
     5  N    0.143465
     6  C    0.143673
     7  C    0.861890
    12  C   -0.362711
    14  C   -0.500375
    15  C    2.073015
    16  O   -0.382309
    17  C   -1.461036
    18  C    0.266613
    21  C   -0.210012
    22  C   -0.038209
    23  O    0.069032
    25  C   -0.650440
    27  F   -0.165150
 Electronic spatial extent (au):  <R**2>=          54617.8350
 Charge=              0.0000 electrons
 Dipole moment (field-independent basis, Debye):
    X=             -3.4363    Y=             -4.2757    Z=             -8.0460  Tot=              9.7380
 Quadrupole moment (field-independent basis, Debye-Ang):
   XX=            -77.7595   YY=              4.8447   ZZ=            -86.0241
   XY=             46.4437   XZ=             16.7895   YZ=             89.1753
 Traceless Quadrupole moment (field-independent basis, Debye-Ang):
   XX=            -24.7799   YY=             57.8244   ZZ=            -33.0445
   XY=             46.4437   XZ=             16.7895   YZ=             89.1753
 Octapole moment (field-independent basis, Debye-Ang**2):
  XXX=            395.6219  YYY=           1391.5542  ZZZ=           -404.8018  XYY=           -476.0045
  XXY=            847.2731  XXZ=           -132.6718  XZZ=             94.1934  YZZ=            965.4206
  YYZ=          -1086.9096  XYZ=           -187.9551
 Hexadecapole moment (field-independent basis, Debye-Ang**3):
 XXXX=          -1848.3022 YYYY=         -42903.7657 ZZZZ=          -5364.0857 XXXY=          -4466.9417
 XXXZ=           -131.2973 YYYX=           3307.7549 YYYZ=          14139.2154 ZZZX=            -23.3773
 ZZZY=           4622.0900 XXYY=          -9672.6987 XXZZ=          -1012.8976 YYZZ=         -11817.0532
 XXYZ=           1486.3198 YYXZ=           2029.6161 ZZXY=          -1049.0719
 N-N= 9.353936785325D+02 E-N=-3.581264725696D+03  KE= 7.281632982655D+02
 Leave Link  601 at Fri Nov  3 00:26:16 2017, MaxMem=  3758096384 cpu:         0.3
 (Enter /share/apps/gaussian/g09_D01/g09/l9999.exe)
 1\1\GINC-NXV42\SP\RwB97XD TD-FC\6-311++G(d,p)\C11H12F1N1O2\BTX008\03-N
 ov-2017\0\\#p wb97xd 6-311++G** td=(nstates=4) nosymm\\Title\\0,1\H,0,
 -2.524714,-11.502021,-4.914422\C,0,-3.066723,-10.953915,-4.12427\H,0,-
 2.730555,-9.912268,-4.094456\H,0,-4.144651,-10.988047,-4.359245\N,0,-2
 .816307,-11.57208,-2.828697\C,0,-3.173733,-12.975338,-2.684507\C,0,-2.
 324622,-10.871668,-1.805573\H,0,-4.016491,-13.087585,-1.982358\H,0,-3.
 462628,-13.372956,-3.666538\H,0,-2.313736,-13.55073,-2.305385\H,0,-2.0
 65242,-9.834406,-2.038281\C,0,-2.106865,-11.336348,-0.521142\H,0,-2.35
 687,-12.362777,-0.265337\C,0,-1.566199,-10.476554,0.477239\C,0,-1.3023
 89,-10.954624,1.854185\O,0,-1.294964,-9.237197,0.216543\C,0,-1.47896,-
 12.289358,2.265866\C,0,-0.804146,-10.023569,2.821\H,0,-0.843736,-8.733
 816,1.443572\H,0,-1.838296,-13.033434,1.55481\C,0,-1.187522,-12.719364
 ,3.554244\C,0,-0.524843,-10.436163,4.13583\O,0,-0.587422,-8.741366,2.4
 83232\H,0,-1.306504,-13.763653,3.847937\C,0,-0.711271,-11.766932,4.455
 069\H,0,-0.130043,-9.724543,4.865135\F,0,-0.400633,-12.16647,5.735747\
 \Version=ES64L-G09RevD.01\HF=-731.3879279\RMSD=5.433e-09\PG=C01 [X(C11
 H12F1N1O2)]\\@


 YOU SHOULDN'T LET PEOPLE DRIVE YOU CRAZY
 WHEN YOU KNOW IT'S WITHIN WALKING DISTANCE.
 Job cpu time:       0 days  1 hours  5 minutes 39.4 seconds.
 File lengths (MBytes):  RWF=    262 Int=      0 D2E=      0 Chk=     30 Scr=      1
 Normal termination of Gaussian 09 at Fri Nov  3 00:26:16 2017.
