 Entering Gaussian System, Link 0=g09
 Input=2hp_2_k846-mega_dimer_2_mon-0.com
 Output=2hp_2_k846-mega_dimer_2_mon-0.out
 Initial command:
 /share/apps/gaussian/g09_D01/g09/l1.exe "/tmp/160995.1.all.q/Gau-22162.inp" -scrdir="/tmp/160995.1.all.q/"
 Entering Link 1 = /share/apps/gaussian/g09_D01/g09/l1.exe PID=     22163.
  
 Copyright (c) 1988,1990,1992,1993,1995,1998,2003,2009,2013,
            Gaussian, Inc.  All Rights Reserved.
  
 This is part of the Gaussian(R) 09 program.  It is based on
 the Gaussian(R) 03 system (copyright 2003, Gaussian, Inc.),
 the Gaussian(R) 98 system (copyright 1998, Gaussian, Inc.),
 the Gaussian(R) 94 system (copyright 1995, Gaussian, Inc.),
 the Gaussian 92(TM) system (copyright 1992, Gaussian, Inc.),
 the Gaussian 90(TM) system (copyright 1990, Gaussian, Inc.),
 the Gaussian 88(TM) system (copyright 1988, Gaussian, Inc.),
 the Gaussian 86(TM) system (copyright 1986, Carnegie Mellon
 University), and the Gaussian 82(TM) system (copyright 1983,
 Carnegie Mellon University). Gaussian is a federally registered
 trademark of Gaussian, Inc.
  
 This software contains proprietary and confidential information,
 including trade secrets, belonging to Gaussian, Inc.
  
 This software is provided under written license and may be
 used, copied, transmitted, or stored only in accord with that
 written license.
  
 The following legend is applicable only to US Government
 contracts under FAR:
  
                    RESTRICTED RIGHTS LEGEND
  
 Use, reproduction and disclosure by the US Government is
 subject to restrictions as set forth in subparagraphs (a)
 and (c) of the Commercial Computer Software - Restricted
 Rights clause in FAR 52.227-19.
  
 Gaussian, Inc.
 340 Quinnipiac St., Bldg. 40, Wallingford CT 06492
  
  
 ---------------------------------------------------------------
 Warning -- This program may not be used in any manner that
 competes with the business of Gaussian, Inc. or will provide
 assistance to any competitor of Gaussian, Inc.  The licensee
 of this program is prohibited from giving any competitor of
 Gaussian, Inc. access to this program.  By using this program,
 the user acknowledges that Gaussian, Inc. is engaged in the
 business of creating and licensing software in the field of
 computational chemistry and represents and warrants to the
 licensee that it is not a competitor of Gaussian, Inc. and that
 it will not use this program in any manner prohibited above.
 ---------------------------------------------------------------
  

 Cite this work as:
 Gaussian 09, Revision D.01,
 M. J. Frisch, G. W. Trucks, H. B. Schlegel, G. E. Scuseria, 
 M. A. Robb, J. R. Cheeseman, G. Scalmani, V. Barone, B. Mennucci, 
 G. A. Petersson, H. Nakatsuji, M. Caricato, X. Li, H. P. Hratchian, 
 A. F. Izmaylov, J. Bloino, G. Zheng, J. L. Sonnenberg, M. Hada, 
 M. Ehara, K. Toyota, R. Fukuda, J. Hasegawa, M. Ishida, T. Nakajima, 
 Y. Honda, O. Kitao, H. Nakai, T. Vreven, J. A. Montgomery, Jr., 
 J. E. Peralta, F. Ogliaro, M. Bearpark, J. J. Heyd, E. Brothers, 
 K. N. Kudin, V. N. Staroverov, T. Keith, R. Kobayashi, J. Normand, 
 K. Raghavachari, A. Rendell, J. C. Burant, S. S. Iyengar, J. Tomasi, 
 M. Cossi, N. Rega, J. M. Millam, M. Klene, J. E. Knox, J. B. Cross, 
 V. Bakken, C. Adamo, J. Jaramillo, R. Gomperts, R. E. Stratmann, 
 O. Yazyev, A. J. Austin, R. Cammi, C. Pomelli, J. W. Ochterski, 
 R. L. Martin, K. Morokuma, V. G. Zakrzewski, G. A. Voth, 
 P. Salvador, J. J. Dannenberg, S. Dapprich, A. D. Daniels, 
 O. Farkas, J. B. Foresman, J. V. Ortiz, J. Cioslowski, 
 and D. J. Fox, Gaussian, Inc., Wallingford CT, 2013.
 
 ******************************************
 Gaussian 09:  ES64L-G09RevD.01 24-Apr-2013
                 3-Nov-2017 
 ******************************************
 %chk=2hp_2_k846-mega_dimer_2_mon-0.chk
 %nproc=4
 Will use up to    4 processors via shared memory.
 %mem=28GB
 ------------------------------------------
 #p wb97xd 6-311++G** td=(nstates=4) nosymm
 ------------------------------------------
 1/38=1/1;
 2/12=2,15=1,17=6,18=5,40=1/2;
 3/5=4,6=6,7=1111,11=9,16=1,25=1,30=1,74=-58/1,2,8,3;
 4//1;
 5/5=2,38=5/2;
 8/6=1,10=2,108=4/1;
 9/41=4,42=1,70=2/14;
 6/7=2,8=2,9=2,10=2/1;
 99/5=1,9=1/99;
 Leave Link    1 at Fri Nov  3 00:06:03 2017, MaxMem=  3758096384 cpu:         1.0
 (Enter /share/apps/gaussian/g09_D01/g09/l101.exe)
 -----
 Title
 -----
 Symbolic Z-matrix:
 Charge =  0 Multiplicity = 1
 C                     0.71127  -10.35207  -4.45507 
 C                     0.52484  -11.68284  -4.13584 
 F                     0.40063  -9.95253  -5.73574 
 C                     1.18753  -9.39963  -3.55425 
 H                     0.13004  -12.39446  -4.86514 
 C                     0.80415  -12.09543  -2.82101 
 C                     1.47896  -9.82964  -2.26586 
 H                     1.30651  -8.35535  -3.84794 
 O                     0.58742  -13.37763  -2.48323 
 C                     1.30239  -11.16437  -1.85418 
 H                     1.83829  -9.08557  -1.55482 
 H                     0.84373  -13.38518  -1.44358 
 C                     1.56619  -11.64245  -0.47724 
 O                     1.29496  -12.8818  -0.21655 
 C                     2.10687  -10.78265   0.52114 
 C                     2.32462  -11.24733   1.80557 
 H                     2.35688  -9.75622   0.26533 
 H                     2.06524  -12.28459   2.03828 
 N                     2.81631  -10.54692   2.8287 
 C                     3.17373  -9.14366   2.68451 
 C                     3.06672  -11.16508   4.12427 
 H                     4.01649  -9.03141   1.98236 
 H                     3.46263  -8.74604   3.66654 
 H                     2.31374  -8.56827   2.30538 
 H                     2.73056  -12.20673   4.09445 
 H                     2.52471  -10.61698   4.91442 
 H                     4.14466  -11.13095   4.35924 
 
 NAtoms=     27 NQM=       27 NQMF=       0 NMMI=      0 NMMIF=      0
                NMic=       0 NMicF=      0.
                    Isotopes and Nuclear Properties:
 (Nuclear quadrupole moments (NQMom) in fm**2, nuclear magnetic moments (NMagM)
  in nuclear magnetons)

  Atom         1           2           3           4           5           6           7           8           9          10
 IAtWgt=          12          12          19          12           1          12          12           1          16          12
 AtmWgt=  12.0000000  12.0000000  18.9984033  12.0000000   1.0078250  12.0000000  12.0000000   1.0078250  15.9949146  12.0000000
 NucSpn=           0           0           1           0           1           0           0           1           0           0
 AtZEff=   0.0000000   0.0000000   0.0000000   0.0000000   0.0000000   0.0000000   0.0000000   0.0000000   0.0000000   0.0000000
 NQMom=    0.0000000   0.0000000   0.0000000   0.0000000   0.0000000   0.0000000   0.0000000   0.0000000   0.0000000   0.0000000
 NMagM=    0.0000000   0.0000000   2.6288670   0.0000000   2.7928460   0.0000000   0.0000000   2.7928460   0.0000000   0.0000000
 AtZNuc=   6.0000000   6.0000000   9.0000000   6.0000000   1.0000000   6.0000000   6.0000000   1.0000000   8.0000000   6.0000000

  Atom        11          12          13          14          15          16          17          18          19          20
 IAtWgt=           1           1          12          16          12          12           1           1          14          12
 AtmWgt=   1.0078250   1.0078250  12.0000000  15.9949146  12.0000000  12.0000000   1.0078250   1.0078250  14.0030740  12.0000000
 NucSpn=           1           1           0           0           0           0           1           1           2           0
 AtZEff=   0.0000000   0.0000000   0.0000000   0.0000000   0.0000000   0.0000000   0.0000000   0.0000000   0.0000000   0.0000000
 NQMom=    0.0000000   0.0000000   0.0000000   0.0000000   0.0000000   0.0000000   0.0000000   0.0000000   2.0440000   0.0000000
 NMagM=    2.7928460   2.7928460   0.0000000   0.0000000   0.0000000   0.0000000   2.7928460   2.7928460   0.4037610   0.0000000
 AtZNuc=   1.0000000   1.0000000   6.0000000   8.0000000   6.0000000   6.0000000   1.0000000   1.0000000   7.0000000   6.0000000

  Atom        21          22          23          24          25          26          27
 IAtWgt=          12           1           1           1           1           1           1
 AtmWgt=  12.0000000   1.0078250   1.0078250   1.0078250   1.0078250   1.0078250   1.0078250
 NucSpn=           0           1           1           1           1           1           1
 AtZEff=   0.0000000   0.0000000   0.0000000   0.0000000   0.0000000   0.0000000   0.0000000
 NQMom=    0.0000000   0.0000000   0.0000000   0.0000000   0.0000000   0.0000000   0.0000000
 NMagM=    0.0000000   2.7928460   2.7928460   2.7928460   2.7928460   2.7928460   2.7928460
 AtZNuc=   6.0000000   1.0000000   1.0000000   1.0000000   1.0000000   1.0000000   1.0000000
 Leave Link  101 at Fri Nov  3 00:06:03 2017, MaxMem=  3758096384 cpu:         0.2
 (Enter /share/apps/gaussian/g09_D01/g09/l202.exe)
                          Input orientation:                          
 ---------------------------------------------------------------------
 Center     Atomic      Atomic             Coordinates (Angstroms)
 Number     Number       Type             X           Y           Z
 ---------------------------------------------------------------------
      1          6           0        0.711266  -10.352067   -4.455065
      2          6           0        0.524838  -11.682836   -4.135836
      3          9           0        0.400627   -9.952529   -5.735743
      4          6           0        1.187527   -9.399635   -3.554250
      5          1           0        0.130037  -12.394456   -4.865141
      6          6           0        0.804151  -12.095430   -2.821006
      7          6           0        1.478955   -9.829641   -2.265862
      8          1           0        1.306509   -8.355346   -3.847943
      9          8           0        0.587417  -13.377633   -2.483228
     10          6           0        1.302394  -11.164375   -1.854181
     11          1           0        1.838291   -9.085565   -1.554816
     12          1           0        0.843731  -13.385183   -1.443578
     13          6           0        1.566194  -11.642445   -0.477235
     14          8           0        1.294958  -12.881802   -0.216549
     15          6           0        2.106870  -10.782651    0.521136
     16          6           0        2.324617  -11.247330    1.805567
     17          1           0        2.356875   -9.756222    0.265331
     18          1           0        2.065237  -12.284592    2.038284
     19          7           0        2.816311  -10.546919    2.828701
     20          6           0        3.173727   -9.143661    2.684511
     21          6           0        3.066717  -11.165084    4.124274
     22          1           0        4.016486   -9.031414    1.982362
     23          1           0        3.462633   -8.746043    3.666542
     24          1           0        2.313741   -8.568269    2.305379
     25          1           0        2.730560  -12.206731    4.094450
     26          1           0        2.524709  -10.616978    4.914416
     27          1           0        4.144656  -11.130952    4.359239
 ---------------------------------------------------------------------
                    Distance matrix (angstroms):
                    1          2          3          4          5
     1  C    0.000000
     2  C    1.381162   0.000000
     3  F    1.377049   2.359893   0.000000
     4  C    1.394783   2.447531   2.384075   0.000000
     5  H    2.162716   1.092775   2.606564   3.435938   0.000000
     6  C    2.391253   1.406068   3.640130   2.819917   2.173093
     7  C    2.378000   2.800263   3.635652   1.389165   3.892828
     8  H    2.170209   3.430172   2.633516   1.091307   4.328185
     9  O    3.613520   2.367988   4.727058   4.163134   2.617125
    10  C    2.788167   2.465633   4.165126   2.453107   3.457369
    11  H    3.359413   3.890069   4.505403   2.125999   4.982484
    12  H    4.276259   3.201239   5.513813   4.523022   3.632904
    13  C    4.268385   3.804131   5.645022   3.826435   4.677797
    14  O    4.970440   4.170302   6.312050   4.824653   4.817048
    15  C    5.186105   5.000055   6.538264   4.400761   5.959678
    16  C    6.526861   6.223274   7.889842   5.782265   7.115506
    17  H    5.034402   5.141835   6.314929   4.010452   6.183917
    18  H    6.908797   6.391768   8.285224   6.353722   7.170380
    19  N    7.584354   7.419295   8.918438   6.686648   8.356115
    20  C    7.648366   7.744750   8.901968   6.552301   8.765213
    21  C    8.933880   8.657865  10.285828   8.099870   9.536510
    22  H    7.355887   7.526885   8.572749   6.228376   8.561707
    23  H    8.724095   8.839259   9.961649   7.598890   9.859347
    24  H    7.173107   7.374954   8.380682   6.024515   8.415737
    25  H    8.978393   8.536819  10.350976   8.292367   9.331250
    26  H    9.547038   9.329662  10.880216   8.659578  10.224168
    27  H    9.491406   9.250619  10.831209   8.623536  10.139171
                    6          7          8          9         10
     6  C    0.000000
     7  C    2.428445   0.000000
     8  H    3.910907   2.169392   0.000000
     9  O    1.343545   3.664742   5.253847   0.000000
    10  C    1.431733   1.407896   3.444669   2.409440   0.000000
    11  H    3.425196   1.090118   2.464639   4.566014   2.167546
    12  H    1.887416   3.704260   5.594139   1.070806   2.304551
    13  C    2.505827   2.548147   4.715308   2.827170   1.481257
    14  O    2.764502   3.680927   5.803099   2.425757   2.373068
    15  C    3.819735   3.011621   5.061743   4.250750   2.536735
    16  C    4.943305   4.393350   6.431352   5.094096   3.800734
    17  H    4.172328   2.680125   4.470430   4.878542   2.754479
    18  H    5.023825   4.989608   7.117746   4.880857   4.121662
    19  N    6.194018   5.315786   7.187494   6.418528   4.960099
    20  C    6.681209   5.277216   6.839656   7.163871   5.308945
    21  C    7.363536   6.718499   8.634188   7.396038   6.233359
    22  H    6.540614   5.012348   6.464789   7.112639   5.160899
    23  H    7.770084   6.348431   7.827452   8.218161   6.402605
    24  H    6.403089   4.814994   6.238848   7.002923   5.006449
    25  H    7.179622   6.904393   8.941068   7.016404   6.205834
    26  H    8.061197   7.298623   9.131151   8.130157   6.899826
    27  H    7.977789   7.258880   9.116847   8.032489   6.832727
                   11         12         13         14         15
    11  H    0.000000
    12  H    4.414548   0.000000
    13  C    2.787984   2.119648   0.000000
    14  O    4.061722   1.400928   1.295196   0.000000
    15  C    2.694775   3.496969   1.424191   2.368505   0.000000
    16  C    4.025160   4.161776   2.437726   2.796542   1.383150
    17  H    2.007896   4.287112   2.175872   3.336035   1.086966
    18  H    4.816186   3.850551   2.643716   2.456473   2.135251
    19  N    4.723060   5.495378   3.700295   4.127922   2.425641
    20  C    4.445071   6.360858   4.338747   5.091132   2.916276
    21  C    6.171344   6.393081   4.863469   4.992894   3.748355
    22  H    4.154407   6.384257   4.344080   5.202635   2.974667
    23  H    5.478717   7.381978   5.399677   6.073032   3.984902
    24  H    3.923615   6.278397   4.213351   5.099471   2.851282
    25  H    6.515522   5.968134   4.751260   4.593625   3.896866
    26  H    6.683364   7.135316   5.571376   5.741822   4.416214
    27  H    6.669256   7.046300   5.504686   5.667812   4.359463
                   16         17         18         19         20
    16  C    0.000000
    17  H    2.144008   0.000000
    18  H    1.094234   3.101785   0.000000
    19  N    1.333845   2.721608   2.051433   0.000000
    20  C    2.432890   2.625816   3.392905   1.455222   0.000000
    21  C    2.435955   4.168958   2.570528   1.457169   2.484053
    22  H    2.793557   2.495566   3.793899   2.110323   1.102658
    23  H    3.318847   3.716369   4.138269   2.088747   1.098158
    24  H    2.725307   2.361120   3.734187   2.107486   1.101995
    25  H    2.514801   4.561446   2.162530   2.089127   3.400989
    26  H    3.178415   4.731074   3.356216   2.107166   2.750339
    27  H    3.138045   4.673984   3.322905   2.109062   2.774300
                   21         22         23         24         25
    21  C    0.000000
    22  H    3.168974   0.000000
    23  H    2.493597   1.795732   0.000000
    24  H    3.258650   1.793930   1.790062   0.000000
    25  H    1.094952   4.024569   3.563060   4.075895   0.000000
    26  H    1.103865   3.651897   2.436655   3.323972   1.800565
    27  H    1.103778   3.173962   2.575418   3.760045   1.796408
                   26         27
    26  H    0.000000
    27  H    1.787909   0.000000
 Symmetry turned off by external request.
 Stoichiometry    C11H12FNO2
 Framework group  C1[X(C11H12FNO2)]
 Deg. of freedom    75
 Full point group                 C1      NOp   1
 Rotational constants (GHZ):      1.4421817      0.2499394      0.2136368
 Leave Link  202 at Fri Nov  3 00:06:03 2017, MaxMem=  3758096384 cpu:         0.0
 (Enter /share/apps/gaussian/g09_D01/g09/l301.exe)
 Standard basis: 6-311++G(d,p) (5D, 7F)
 Ernie: Thresh=  0.10000D-02 Tol=  0.10000D-05 Strict=F.
   414 basis functions,   648 primitive gaussians,   429 cartesian basis functions
    55 alpha electrons       55 beta electrons
       nuclear repulsion energy       935.4086923004 Hartrees.
 IExCor= 4639 DFT=T Ex+Corr=wB97XD ExCW=0 ScaHFX=  1.000000
 ScaDFX=  1.000000  1.000000  1.000000  1.000000 ScalE2=  1.000000  1.000000
 IRadAn=      0 IRanWt=     -1 IRanGd=            0 ICorTp=0 IEmpDi=121
  HFx wShort=  0.000000 wLong=  0.200000 cFull=  0.222036 cShort=  0.000000 cLong=  0.777964
  DFx wShort=  0.000000 wLong=  0.200000 cFull=  0.000000 cShort=  0.000000 cLong=  1.000000
 NAtoms=   27 NActive=   27 NUniq=   27 SFac= 1.00D+00 NAtFMM=   60 NAOKFM=F Big=F
 Integral buffers will be    131072 words long.
 Raffenetti 1 integral format.
 Two-electron integral symmetry is turned off.
 R6Disp:  Grimme-D2 Dispersion energy=       -0.0151265571 Hartrees.
 Nuclear repulsion after empirical dispersion term =      935.3935657433 Hartrees.
 Leave Link  301 at Fri Nov  3 00:06:03 2017, MaxMem=  3758096384 cpu:         0.1
 (Enter /share/apps/gaussian/g09_D01/g09/l302.exe)
 NPDir=0 NMtPBC=     1 NCelOv=     1 NCel=       1 NClECP=     1 NCelD=      1
         NCelK=      1 NCelE2=     1 NClLst=     1 CellRange=     0.0.
 One-electron integrals computed using PRISM.
 NBasis=   414 RedAO= T EigKep=  1.62D-06  NBF=   414
 NBsUse=   411 1.00D-06 EigRej=  8.57D-07 NBFU=   411
 Precomputing XC quadrature grid using
 IXCGrd= 4 IRadAn=           0 IRanWt=          -1 IRanGd=           0 AccXCQ= 0.00D+00.
 Generated NRdTot=       0 NPtTot=           0 NUsed=           0 NTot=          32
 NSgBfM=   424   424   424   424   424 MxSgAt=    27 MxSgA2=    27.
 Leave Link  302 at Fri Nov  3 00:06:04 2017, MaxMem=  3758096384 cpu:         1.8
 (Enter /share/apps/gaussian/g09_D01/g09/l308.exe)
 Leave Link  308 at Fri Nov  3 00:06:04 2017, MaxMem=  3758096384 cpu:         0.2
 (Enter /share/apps/gaussian/g09_D01/g09/l303.exe)
 DipDrv:  MaxL=1.
 Leave Link  303 at Fri Nov  3 00:06:04 2017, MaxMem=  3758096384 cpu:         0.2
 (Enter /share/apps/gaussian/g09_D01/g09/l401.exe)
 ExpMin= 3.60D-02 ExpMax= 1.14D+04 ExpMxC= 1.72D+03 IAcc=3 IRadAn=         5 AccDes= 0.00D+00
 Harris functional with IExCor= 4639 and IRadAn=       5 diagonalized for initial guess.
 HarFok:  IExCor= 4639 AccDes= 0.00D+00 IRadAn=         5 IDoV= 1 UseB2=F ITyADJ=14
 ICtDFT=  3500011 ScaDFX=  1.000000  1.000000  1.000000  1.000000
 FoFCou: FMM=F IPFlag=           0 FMFlag=      100000 FMFlg1=           0
         NFxFlg=           0 DoJE=T BraDBF=F KetDBF=T FulRan=T
         wScrn=  0.000000 ICntrl=     500 IOpCl=  0 I1Cent=   200000004 NGrid=           0
         NMat0=    1 NMatS0=      1 NMatT0=    0 NMatD0=    1 NMtDS0=    0 NMtDT0=    0
 Symmetry not used in FoFCou.
 Harris En= -701.390151161570    
 JPrj=0 DoOrth=F DoCkMO=F.
 Leave Link  401 at Fri Nov  3 00:06:10 2017, MaxMem=  3758096384 cpu:        24.7
 (Enter /share/apps/gaussian/g09_D01/g09/l502.exe)
 Closed shell SCF:
 Using DIIS extrapolation, IDIIS=  1040.
 Two-electron integral symmetry not used.
 IVT=      575875 IEndB=      575875 NGot=  3758096384 MDV=  3757721620
 LenX=  3757721620 LenY=  3757537138
 Requested convergence on RMS density matrix=1.00D-08 within 128 cycles.
 Requested convergence on MAX density matrix=1.00D-06.
 Requested convergence on             energy=1.00D-06.
 No special actions if energy rises.
 Fock matrices will be formed incrementally for  20 cycles.

 Cycle   1  Pass 1  IDiag  1:
 FoFJK:  IHMeth= 1 ICntrl=       0 DoSepK=T KAlg= 0 I1Cent=   0 FoldK=F
 IRaf=         1 NMat=   1 IRICut=       1 DoRegI=T DoRafI=F ISym2E= 0.
 FoFCou: FMM=F IPFlag=           0 FMFlag=      100000 FMFlg1=           0
         NFxFlg=           0 DoJE=T BraDBF=F KetDBF=F FulRan=T
         wScrn=  0.000000 ICntrl=     500 IOpCl=  0 I1Cent=           0 NGrid=           0
         NMat0=    1 NMatS0=      1 NMatT0=    0 NMatD0=    1 NMtDS0=    0 NMtDT0=    0
 Symmetry not used in FoFCou.
 E= -731.039099241197    
 DIIS: error= 1.16D-01 at cycle   1 NSaved=   1.
 NSaved= 1 IEnMin= 1 EnMin= -731.039099241197     IErMin= 1 ErrMin= 1.16D-01
 ErrMax= 1.16D-01  0.00D+00 EMaxC= 1.00D-01 BMatC= 1.75D+00 BMatP= 1.75D+00
 IDIUse=3 WtCom= 0.00D+00 WtEn= 1.00D+00
 Coeff-Com:  0.100D+01
 Coeff-En:   0.100D+01
 Coeff:      0.100D+01
 Gap=     0.310 Goal=   None    Shift=    0.000
 GapD=    0.310 DampG=1.000 DampE=0.250 DampFc=0.2500 IDamp=-1.
 Damping current iteration by 2.50D-01
 RMSDP=3.38D-02 MaxDP=3.16D+00              OVMax= 1.84D-01

 Cycle   2  Pass 1  IDiag  1:
 RMSU=  2.77D-03    CP:  9.01D-01
 E= -731.157623033812     Delta-E=       -0.118523792614 Rises=F Damp=T
 DIIS: error= 8.28D-02 at cycle   2 NSaved=   2.
 NSaved= 2 IEnMin= 2 EnMin= -731.157623033812     IErMin= 2 ErrMin= 8.28D-02
 ErrMax= 8.28D-02  0.00D+00 EMaxC= 1.00D-01 BMatC= 8.27D-01 BMatP= 1.75D+00
 IDIUse=3 WtCom= 1.72D-01 WtEn= 8.28D-01
 Coeff-Com: -0.172D+01 0.272D+01
 Coeff-En:   0.000D+00 0.100D+01
 Coeff:     -0.296D+00 0.130D+01
 Gap=     0.274 Goal=   None    Shift=    0.000
 RMSDP=2.42D-02 MaxDP=2.38D+00 DE=-1.19D-01 OVMax= 7.02D-02

 Cycle   3  Pass 1  IDiag  1:
 RMSU=  2.55D-03    CP:  6.13D-01  3.00D+00
 E= -731.358383424155     Delta-E=       -0.200760390343 Rises=F Damp=F
 DIIS: error= 1.38D-02 at cycle   3 NSaved=   3.
 NSaved= 3 IEnMin= 3 EnMin= -731.358383424155     IErMin= 3 ErrMin= 1.38D-02
 ErrMax= 1.38D-02  0.00D+00 EMaxC= 1.00D-01 BMatC= 4.86D-02 BMatP= 8.27D-01
 IDIUse=3 WtCom= 8.62D-01 WtEn= 1.38D-01
 Coeff-Com:  0.106D+01-0.137D+01 0.131D+01
 Coeff-En:   0.000D+00 0.000D+00 0.100D+01
 Coeff:      0.914D+00-0.118D+01 0.127D+01
 Gap=     0.284 Goal=   None    Shift=    0.000
 RMSDP=3.10D-03 MaxDP=2.03D-01 DE=-2.01D-01 OVMax= 2.88D-02

 Cycle   4  Pass 1  IDiag  1:
 RMSU=  2.71D-03    CP:  6.01D-01  2.85D+00  1.18D+00
 E= -731.384662280255     Delta-E=       -0.026278856100 Rises=F Damp=F
 DIIS: error= 3.95D-03 at cycle   4 NSaved=   4.
 NSaved= 4 IEnMin= 4 EnMin= -731.384662280255     IErMin= 4 ErrMin= 3.95D-03
 ErrMax= 3.95D-03  0.00D+00 EMaxC= 1.00D-01 BMatC= 4.82D-03 BMatP= 4.86D-02
 IDIUse=3 WtCom= 9.60D-01 WtEn= 3.95D-02
 Coeff-Com:  0.418D+00-0.543D+00 0.599D+00 0.527D+00
 Coeff-En:   0.000D+00 0.000D+00 0.000D+00 0.100D+01
 Coeff:      0.402D+00-0.522D+00 0.575D+00 0.545D+00
 Gap=     0.281 Goal=   None    Shift=    0.000
 RMSDP=1.08D-03 MaxDP=6.99D-02 DE=-2.63D-02 OVMax= 1.00D-02

 Cycle   5  Pass 1  IDiag  1:
 RMSU=  6.65D-04    CP:  6.00D-01  3.00D+00  1.20D+00  7.48D-01
 E= -731.387673593472     Delta-E=       -0.003011313216 Rises=F Damp=F
 DIIS: error= 8.65D-04 at cycle   5 NSaved=   5.
 NSaved= 5 IEnMin= 5 EnMin= -731.387673593472     IErMin= 5 ErrMin= 8.65D-04
 ErrMax= 8.65D-04  0.00D+00 EMaxC= 1.00D-01 BMatC= 2.71D-04 BMatP= 4.82D-03
 IDIUse=3 WtCom= 9.91D-01 WtEn= 8.65D-03
 Coeff-Com:  0.750D-02-0.929D-02 0.429D-01 0.214D+00 0.745D+00
 Coeff-En:   0.000D+00 0.000D+00 0.000D+00 0.000D+00 0.100D+01
 Coeff:      0.743D-02-0.921D-02 0.426D-01 0.212D+00 0.747D+00
 Gap=     0.281 Goal=   None    Shift=    0.000
 RMSDP=3.93D-04 MaxDP=3.50D-02 DE=-3.01D-03 OVMax= 4.05D-03

 Cycle   6  Pass 1  IDiag  1:
 RMSU=  1.84D-04    CP:  5.96D-01  3.00D+00  1.19D+00  7.68D-01  1.00D+00
 E= -731.387890924523     Delta-E=       -0.000217331052 Rises=F Damp=F
 DIIS: error= 3.21D-04 at cycle   6 NSaved=   6.
 NSaved= 6 IEnMin= 6 EnMin= -731.387890924523     IErMin= 6 ErrMin= 3.21D-04
 ErrMax= 3.21D-04  0.00D+00 EMaxC= 1.00D-01 BMatC= 2.63D-05 BMatP= 2.71D-04
 IDIUse=3 WtCom= 9.97D-01 WtEn= 3.21D-03
 Coeff-Com: -0.300D-01 0.393D-01-0.312D-01 0.447D-01 0.319D+00 0.658D+00
 Coeff-En:   0.000D+00 0.000D+00 0.000D+00 0.000D+00 0.000D+00 0.100D+01
 Coeff:     -0.299D-01 0.392D-01-0.311D-01 0.445D-01 0.318D+00 0.660D+00
 Gap=     0.281 Goal=   None    Shift=    0.000
 RMSDP=1.22D-04 MaxDP=1.37D-02 DE=-2.17D-04 OVMax= 2.74D-03

 Cycle   7  Pass 1  IDiag  1:
 RMSU=  6.86D-05    CP:  5.95D-01  3.00D+00  1.19D+00  7.66D-01  1.10D+00
                    CP:  1.20D+00
 E= -731.387920166599     Delta-E=       -0.000029242076 Rises=F Damp=F
 DIIS: error= 9.98D-05 at cycle   7 NSaved=   7.
 NSaved= 7 IEnMin= 7 EnMin= -731.387920166599     IErMin= 7 ErrMin= 9.98D-05
 ErrMax= 9.98D-05  0.00D+00 EMaxC= 1.00D-01 BMatC= 4.24D-06 BMatP= 2.63D-05
 IDIUse=1 WtCom= 1.00D+00 WtEn= 0.00D+00
 Coeff-Com: -0.111D-01 0.143D-01-0.204D-01-0.201D-01 0.514D-02 0.260D+00
 Coeff-Com:  0.772D+00
 Coeff:     -0.111D-01 0.143D-01-0.204D-01-0.201D-01 0.514D-02 0.260D+00
 Coeff:      0.772D+00
 Gap=     0.281 Goal=   None    Shift=    0.000
 RMSDP=4.98D-05 MaxDP=3.57D-03 DE=-2.92D-05 OVMax= 8.94D-04

 Cycle   8  Pass 1  IDiag  1:
 RMSU=  2.11D-05    CP:  5.95D-01  3.00D+00  1.19D+00  7.69D-01  1.14D+00
                    CP:  1.35D+00  1.13D+00
 E= -731.387926367955     Delta-E=       -0.000006201357 Rises=F Damp=F
 DIIS: error= 6.96D-05 at cycle   8 NSaved=   8.
 NSaved= 8 IEnMin= 8 EnMin= -731.387926367955     IErMin= 8 ErrMin= 6.96D-05
 ErrMax= 6.96D-05  0.00D+00 EMaxC= 1.00D-01 BMatC= 8.29D-07 BMatP= 4.24D-06
 IDIUse=1 WtCom= 1.00D+00 WtEn= 0.00D+00
 Coeff-Com:  0.299D-02-0.414D-02-0.260D-02-0.217D-01-0.715D-01-0.761D-02
 Coeff-Com:  0.361D+00 0.744D+00
 Coeff:      0.299D-02-0.414D-02-0.260D-02-0.217D-01-0.715D-01-0.761D-02
 Coeff:      0.361D+00 0.744D+00
 Gap=     0.282 Goal=   None    Shift=    0.000
 RMSDP=2.13D-05 MaxDP=1.51D-03 DE=-6.20D-06 OVMax= 7.64D-04

 Cycle   9  Pass 1  IDiag  1:
 RMSU=  1.27D-05    CP:  5.95D-01  3.00D+00  1.19D+00  7.69D-01  1.16D+00
                    CP:  1.39D+00  1.10D+00  1.22D+00
 E= -731.387927867614     Delta-E=       -0.000001499659 Rises=F Damp=F
 DIIS: error= 1.26D-05 at cycle   9 NSaved=   9.
 NSaved= 9 IEnMin= 9 EnMin= -731.387927867614     IErMin= 9 ErrMin= 1.26D-05
 ErrMax= 1.26D-05  0.00D+00 EMaxC= 1.00D-01 BMatC= 8.30D-08 BMatP= 8.29D-07
 IDIUse=1 WtCom= 1.00D+00 WtEn= 0.00D+00
 Coeff-Com:  0.234D-02-0.309D-02 0.217D-02-0.294D-02-0.183D-01-0.346D-01
 Coeff-Com: -0.408D-01 0.216D+00 0.879D+00
 Coeff:      0.234D-02-0.309D-02 0.217D-02-0.294D-02-0.183D-01-0.346D-01
 Coeff:     -0.408D-01 0.216D+00 0.879D+00
 Gap=     0.282 Goal=   None    Shift=    0.000
 RMSDP=1.19D-05 MaxDP=8.94D-04 DE=-1.50D-06 OVMax= 2.60D-04

 Cycle  10  Pass 1  IDiag  1:
 RMSU=  3.54D-06    CP:  5.95D-01  3.00D+00  1.19D+00  7.68D-01  1.16D+00
                    CP:  1.40D+00  1.08D+00  1.39D+00  1.30D+00
 E= -731.387928036148     Delta-E=       -0.000000168534 Rises=F Damp=F
 DIIS: error= 7.53D-06 at cycle  10 NSaved=  10.
 NSaved=10 IEnMin=10 EnMin= -731.387928036148     IErMin=10 ErrMin= 7.53D-06
 ErrMax= 7.53D-06  0.00D+00 EMaxC= 1.00D-01 BMatC= 1.19D-08 BMatP= 8.30D-08
 IDIUse=1 WtCom= 1.00D+00 WtEn= 0.00D+00
 Coeff-Com:  0.262D-03-0.304D-03 0.129D-02 0.296D-02 0.697D-02-0.774D-02
 Coeff-Com: -0.825D-01-0.322D-01 0.305D+00 0.806D+00
 Coeff:      0.262D-03-0.304D-03 0.129D-02 0.296D-02 0.697D-02-0.774D-02
 Coeff:     -0.825D-01-0.322D-01 0.305D+00 0.806D+00
 Gap=     0.282 Goal=   None    Shift=    0.000
 RMSDP=5.81D-06 MaxDP=5.66D-04 DE=-1.69D-07 OVMax= 8.94D-05

 Cycle  11  Pass 1  IDiag  1:
 RMSU=  1.55D-06    CP:  5.95D-01  3.00D+00  1.19D+00  7.68D-01  1.16D+00
                    CP:  1.39D+00  1.07D+00  1.47D+00  1.41D+00  1.29D+00
 E= -731.387928059290     Delta-E=       -0.000000023142 Rises=F Damp=F
 DIIS: error= 1.73D-06 at cycle  11 NSaved=  11.
 NSaved=11 IEnMin=11 EnMin= -731.387928059290     IErMin=11 ErrMin= 1.73D-06
 ErrMax= 1.73D-06  0.00D+00 EMaxC= 1.00D-01 BMatC= 8.63D-10 BMatP= 1.19D-08
 IDIUse=1 WtCom= 1.00D+00 WtEn= 0.00D+00
 Coeff-Com: -0.998D-04 0.144D-03 0.175D-03 0.939D-03 0.298D-02 0.172D-02
 Coeff-Com: -0.174D-01-0.228D-01-0.911D-02 0.173D+00 0.871D+00
 Coeff:     -0.998D-04 0.144D-03 0.175D-03 0.939D-03 0.298D-02 0.172D-02
 Coeff:     -0.174D-01-0.228D-01-0.911D-02 0.173D+00 0.871D+00
 Gap=     0.282 Goal=   None    Shift=    0.000
 RMSDP=1.06D-06 MaxDP=7.58D-05 DE=-2.31D-08 OVMax= 3.53D-05

 Cycle  12  Pass 1  IDiag  1:
 RMSU=  4.62D-07    CP:  5.95D-01  3.00D+00  1.19D+00  7.68D-01  1.16D+00
                    CP:  1.39D+00  1.06D+00  1.48D+00  1.43D+00  1.41D+00
                    CP:  1.06D+00
 E= -731.387928061678     Delta-E=       -0.000000002388 Rises=F Damp=F
 DIIS: error= 1.20D-06 at cycle  12 NSaved=  12.
 NSaved=12 IEnMin=12 EnMin= -731.387928061678     IErMin=12 ErrMin= 1.20D-06
 ErrMax= 1.20D-06  0.00D+00 EMaxC= 1.00D-01 BMatC= 1.60D-10 BMatP= 8.63D-10
 IDIUse=1 WtCom= 1.00D+00 WtEn= 0.00D+00
 Coeff-Com: -0.336D-04 0.415D-04-0.983D-04-0.150D-03-0.246D-03 0.147D-02
 Coeff-Com:  0.579D-02-0.210D-02-0.417D-01-0.756D-01 0.243D+00 0.869D+00
 Coeff:     -0.336D-04 0.415D-04-0.983D-04-0.150D-03-0.246D-03 0.147D-02
 Coeff:      0.579D-02-0.210D-02-0.417D-01-0.756D-01 0.243D+00 0.869D+00
 Gap=     0.282 Goal=   None    Shift=    0.000
 RMSDP=4.18D-07 MaxDP=3.00D-05 DE=-2.39D-09 OVMax= 1.69D-05

 Cycle  13  Pass 1  IDiag  1:
 RMSU=  1.74D-07    CP:  5.95D-01  3.00D+00  1.19D+00  7.68D-01  1.16D+00
                    CP:  1.39D+00  1.06D+00  1.48D+00  1.44D+00  1.45D+00
                    CP:  1.15D+00  1.17D+00
 E= -731.387928062116     Delta-E=       -0.000000000439 Rises=F Damp=F
 DIIS: error= 4.72D-07 at cycle  13 NSaved=  13.
 NSaved=13 IEnMin=13 EnMin= -731.387928062116     IErMin=13 ErrMin= 4.72D-07
 ErrMax= 4.72D-07  0.00D+00 EMaxC= 1.00D-01 BMatC= 2.58D-11 BMatP= 1.60D-10
 IDIUse=1 WtCom= 1.00D+00 WtEn= 0.00D+00
 Coeff-Com: -0.665D-06-0.187D-05-0.622D-04-0.185D-03-0.523D-03 0.289D-03
 Coeff-Com:  0.457D-02 0.218D-02-0.115D-01-0.519D-01-0.383D-01 0.286D+00
 Coeff-Com:  0.809D+00
 Coeff:     -0.665D-06-0.187D-05-0.622D-04-0.185D-03-0.523D-03 0.289D-03
 Coeff:      0.457D-02 0.218D-02-0.115D-01-0.519D-01-0.383D-01 0.286D+00
 Coeff:      0.809D+00
 Gap=     0.282 Goal=   None    Shift=    0.000
 RMSDP=1.63D-07 MaxDP=1.03D-05 DE=-4.39D-10 OVMax= 6.92D-06

 Cycle  14  Pass 1  IDiag  1:
 RMSU=  7.39D-08    CP:  5.95D-01  3.00D+00  1.19D+00  7.68D-01  1.16D+00
                    CP:  1.39D+00  1.06D+00  1.48D+00  1.44D+00  1.46D+00
                    CP:  1.17D+00  1.25D+00  1.35D+00
 E= -731.387928062199     Delta-E=       -0.000000000083 Rises=F Damp=F
 DIIS: error= 2.49D-07 at cycle  14 NSaved=  14.
 NSaved=14 IEnMin=14 EnMin= -731.387928062199     IErMin=14 ErrMin= 2.49D-07
 ErrMax= 2.49D-07  0.00D+00 EMaxC= 1.00D-01 BMatC= 4.94D-12 BMatP= 2.58D-11
 IDIUse=1 WtCom= 1.00D+00 WtEn= 0.00D+00
 Coeff-Com: -0.373D-06 0.272D-06-0.665D-05-0.219D-04-0.907D-04-0.113D-03
 Coeff-Com:  0.390D-03 0.604D-03 0.450D-02-0.269D-02-0.510D-01-0.444D-01
 Coeff-Com:  0.245D+00 0.847D+00
 Coeff:     -0.373D-06 0.272D-06-0.665D-05-0.219D-04-0.907D-04-0.113D-03
 Coeff:      0.390D-03 0.604D-03 0.450D-02-0.269D-02-0.510D-01-0.444D-01
 Coeff:      0.245D+00 0.847D+00
 Gap=     0.282 Goal=   None    Shift=    0.000
 RMSDP=6.62D-08 MaxDP=5.10D-06 DE=-8.25D-11 OVMax= 2.78D-06

 Cycle  15  Pass 1  IDiag  1:
 RMSU=  2.47D-08    CP:  5.95D-01  3.00D+00  1.19D+00  7.68D-01  1.16D+00
                    CP:  1.39D+00  1.06D+00  1.48D+00  1.44D+00  1.46D+00
                    CP:  1.17D+00  1.27D+00  1.51D+00  1.13D+00
 E= -731.387928062190     Delta-E=        0.000000000009 Rises=F Damp=F
 DIIS: error= 1.05D-07 at cycle  15 NSaved=  15.
 NSaved=15 IEnMin=14 EnMin= -731.387928062199     IErMin=15 ErrMin= 1.05D-07
 ErrMax= 1.05D-07  0.00D+00 EMaxC= 1.00D-01 BMatC= 1.13D-12 BMatP= 4.94D-12
 IDIUse=1 WtCom= 1.00D+00 WtEn= 0.00D+00
 Coeff-Com: -0.209D-05 0.325D-05 0.928D-05 0.350D-04 0.880D-04-0.915D-04
 Coeff-Com: -0.822D-03-0.607D-03 0.380D-02 0.101D-01-0.111D-01-0.780D-01
 Coeff-Com: -0.108D+00 0.308D+00 0.876D+00
 Coeff:     -0.209D-05 0.325D-05 0.928D-05 0.350D-04 0.880D-04-0.915D-04
 Coeff:     -0.822D-03-0.607D-03 0.380D-02 0.101D-01-0.111D-01-0.780D-01
 Coeff:     -0.108D+00 0.308D+00 0.876D+00
 Gap=     0.282 Goal=   None    Shift=    0.000
 RMSDP=2.93D-08 MaxDP=1.94D-06 DE= 8.87D-12 OVMax= 1.79D-06

 Cycle  16  Pass 1  IDiag  1:
 RMSU=  1.28D-08    CP:  5.95D-01  3.00D+00  1.19D+00  7.68D-01  1.16D+00
                    CP:  1.39D+00  1.06D+00  1.48D+00  1.45D+00  1.46D+00
                    CP:  1.17D+00  1.29D+00  1.58D+00  1.19D+00  1.38D+00
 E= -731.387928062258     Delta-E=       -0.000000000068 Rises=F Damp=F
 DIIS: error= 3.05D-08 at cycle  16 NSaved=  16.
 NSaved=16 IEnMin=16 EnMin= -731.387928062258     IErMin=16 ErrMin= 3.05D-08
 ErrMax= 3.05D-08  0.00D+00 EMaxC= 1.00D-01 BMatC= 1.61D-13 BMatP= 1.13D-12
 IDIUse=1 WtCom= 1.00D+00 WtEn= 0.00D+00
 Coeff-Com: -0.100D-06 0.282D-06 0.375D-05 0.124D-04 0.364D-04-0.675D-05
 Coeff-Com: -0.246D-03-0.292D-03 0.516D-03 0.344D-02 0.439D-02-0.100D-01
 Coeff-Com: -0.685D-01-0.591D-01 0.231D+00 0.899D+00
 Coeff:     -0.100D-06 0.282D-06 0.375D-05 0.124D-04 0.364D-04-0.675D-05
 Coeff:     -0.246D-03-0.292D-03 0.516D-03 0.344D-02 0.439D-02-0.100D-01
 Coeff:     -0.685D-01-0.591D-01 0.231D+00 0.899D+00
 Gap=     0.282 Goal=   None    Shift=    0.000
 RMSDP=1.44D-08 MaxDP=1.21D-06 DE=-6.80D-11 OVMax= 5.04D-07

 Cycle  17  Pass 1  IDiag  1:
 RMSU=  3.83D-09    CP:  5.95D-01  3.00D+00  1.19D+00  7.68D-01  1.16D+00
                    CP:  1.39D+00  1.06D+00  1.48D+00  1.45D+00  1.46D+00
                    CP:  1.17D+00  1.29D+00  1.58D+00  1.20D+00  1.58D+00
                    CP:  1.32D+00
 E= -731.387928062246     Delta-E=        0.000000000012 Rises=F Damp=F
 DIIS: error= 1.08D-08 at cycle  17 NSaved=  17.
 NSaved=17 IEnMin=16 EnMin= -731.387928062258     IErMin=17 ErrMin= 1.08D-08
 ErrMax= 1.08D-08  0.00D+00 EMaxC= 1.00D-01 BMatC= 3.57D-14 BMatP= 1.61D-13
 IDIUse=1 WtCom= 1.00D+00 WtEn= 0.00D+00
 Coeff-Com:  0.251D-06-0.362D-06-0.446D-06-0.222D-05-0.313D-05 0.149D-04
 Coeff-Com:  0.744D-04-0.395D-04-0.662D-03-0.577D-03 0.408D-02 0.123D-01
 Coeff-Com: -0.847D-02-0.899D-01-0.693D-01 0.393D+00 0.759D+00
 Coeff:      0.251D-06-0.362D-06-0.446D-06-0.222D-05-0.313D-05 0.149D-04
 Coeff:      0.744D-04-0.395D-04-0.662D-03-0.577D-03 0.408D-02 0.123D-01
 Coeff:     -0.847D-02-0.899D-01-0.693D-01 0.393D+00 0.759D+00
 Gap=     0.282 Goal=   None    Shift=    0.000
 RMSDP=5.41D-09 MaxDP=5.04D-07 DE= 1.18D-11 OVMax= 1.72D-07

 SCF Done:  E(RwB97XD) =  -731.387928062     A.U. after   17 cycles
            NFock= 17  Conv=0.54D-08     -V/T= 2.0044
 KE= 7.281632942790D+02 PE=-3.581264489830D+03 EE= 1.186319701745D+03
 Leave Link  502 at Fri Nov  3 00:10:55 2017, MaxMem=  3758096384 cpu:      1118.5
 (Enter /share/apps/gaussian/g09_D01/g09/l801.exe)
 DoSCS=F DFT=T ScalE2(SS,OS)=  1.000000  1.000000
 ExpMin= 3.60D-02 ExpMax= 1.14D+04 ExpMxC= 1.72D+03 IAcc=3 IRadAn=         5 AccDes= 0.00D+00
 HarFok:  IExCor=  205 AccDes= 0.00D+00 IRadAn=         5 IDoV=-2 UseB2=F ITyADJ=14
 ICtDFT= 12500011 ScaDFX=  1.000000  1.000000  1.000000  1.000000
 Largest valence mixing into a core orbital is  5.74D-05
 Largest core mixing into a valence orbital is  1.60D-05
 Range of M.O.s used for correlation:    16   411
 NBasis=   414 NAE=    55 NBE=    55 NFC=    15 NFV=     0
 NROrb=    396 NOA=    40 NOB=    40 NVA=   356 NVB=   356

 **** Warning!!: The largest alpha MO coefficient is  0.13459306D+03

 Leave Link  801 at Fri Nov  3 00:10:55 2017, MaxMem=  3758096384 cpu:         1.0
 (Enter /share/apps/gaussian/g09_D01/g09/l914.exe)
 RHF ground state
 MDV=  3758096384 DFT=T DoStab=F Mixed=T DoRPA=T DoScal=F NonHer=T
 Would need an additional         18445000000 words for in-memory AO integral storage.
 Making orbital integer symmetry assigments:
    16 initial guesses have been made.
 Convergence on wavefunction:    0.001000000000000
 Davidson Disk Diagonalization:  ConvIn= 1.00D-03 SkipCon=T Conv= 1.00D-03.
 Max sub-space:   200 roots to seek:    16 dimension of matrix:        28480
 Iteration     1 Dimension    16 NMult     0 NNew     16
 CISAX will form    16 AO SS matrices at one time.
 NMat=    16 NSing=    16 JSym2X= 0.
 FoFJK:  IHMeth= 1 ICntrl=       0 DoSepK=T KAlg= 0 I1Cent=   0 FoldK=F
 IRaf=         1 NMat=  32 IRICut=       1 DoRegI=T DoRafI=F ISym2E= 0.
 FoFCou: FMM=F IPFlag=           0 FMFlag=      100000 FMFlg1=           0
         NFxFlg=           0 DoJE=F BraDBF=F KetDBF=F FulRan=T
         wScrn=  0.000000 ICntrl=     500 IOpCl=  0 I1Cent=           0 NGrid=           0
         NMat0=   16 NMatS0=     16 NMatT0=    0 NMatD0=   16 NMtDS0=    0 NMtDT0=    0
 Symmetry not used in FoFCou.
 New state      2 was old state      7
 New state      3 was old state      2
 New state      4 was old state      3
 Excitation Energies [eV] at current iteration:
 Root      1 :     4.496799808370816
 Root      2 :     4.522375706065321
 Root      3 :     5.298708699964186
 Root      4 :     5.856705854859955
 Root      5 :     5.925640491364467
 Root      6 :     6.343953691360624
 Root      7 :     6.607585589173062
 Root      8 :     6.629209906637527
 Root      9 :     6.878884390948926
 Root     10 :     6.908409788654224
 Root     11 :     7.080937121727890
 Root     12 :     7.148281772367656
 Root     13 :     7.300919627676301
 Root     14 :     7.529951783871684
 Root     15 :     7.816989959179364
 Root     16 :     7.927556374697873
 Iteration     2 Dimension    24 NMult    16 NNew      8
 CISAX will form     8 AO SS matrices at one time.
 NMat=     8 NSing=     8 JSym2X= 0.
 Root      1 not converged, maximum delta is    0.123470754426891
 Root      2 not converged, maximum delta is    0.112193507480827
 Root      3 not converged, maximum delta is    0.094171354619222
 Root      4 not converged, maximum delta is    0.101183281520041
 Excitation Energies [eV] at current iteration:
 Root      1 :     3.997011732091172   Change is   -0.499788076279644
 Root      2 :     4.247057617627777   Change is   -0.275318088437544
 Root      3 :     4.607688565497119   Change is   -0.691020134467067
 Root      4 :     5.580496251120209   Change is   -0.276209603739746
 Iteration     3 Dimension    32 NMult    24 NNew      8
 CISAX will form     8 AO SS matrices at one time.
 NMat=     8 NSing=     8 JSym2X= 0.
 Root      1 not converged, maximum delta is    0.027491062617591
 Root      2 not converged, maximum delta is    0.011626860635966
 Root      3 not converged, maximum delta is    0.044272429551654
 Root      4 not converged, maximum delta is    0.439995651477629
 Excitation Energies [eV] at current iteration:
 Root      1 :     3.953191715632625   Change is   -0.043820016458548
 Root      2 :     4.231939742754935   Change is   -0.015117874872842
 Root      3 :     4.548747057441907   Change is   -0.058941508055211
 Root      4 :     5.468433941698320   Change is   -0.112062309421889
 Iteration     4 Dimension    40 NMult    32 NNew      8
 CISAX will form     8 AO SS matrices at one time.
 NMat=     8 NSing=     8 JSym2X= 0.
 Root      1 not converged, maximum delta is    0.013112110283215
 Root      2 not converged, maximum delta is    0.004407747695718
 Root      3 not converged, maximum delta is    0.013295664649081
 Root      4 not converged, maximum delta is    0.187738638702175
 Excitation Energies [eV] at current iteration:
 Root      1 :     3.943879019303637   Change is   -0.009312696328987
 Root      2 :     4.230810639719147   Change is   -0.001129103035788
 Root      3 :     4.535853236463981   Change is   -0.012893820977926
 Root      4 :     5.228586125965643   Change is   -0.239847815732677
 Iteration     5 Dimension    48 NMult    40 NNew      8
 CISAX will form     8 AO SS matrices at one time.
 NMat=     8 NSing=     8 JSym2X= 0.
 Root      1 not converged, maximum delta is    0.003580724254252
 Root      2 not converged, maximum delta is    0.001621763041381
 Root      3 not converged, maximum delta is    0.004481344139326
 Root      4 not converged, maximum delta is    0.034826559324746
 Excitation Energies [eV] at current iteration:
 Root      1 :     3.942907455910393   Change is   -0.000971563393245
 Root      2 :     4.230692327613009   Change is   -0.000118312106138
 Root      3 :     4.534354543744504   Change is   -0.001498692719477
 Root      4 :     5.192725121934120   Change is   -0.035861004031524
 Iteration     6 Dimension    56 NMult    48 NNew      8
 CISAX will form     8 AO SS matrices at one time.
 NMat=     8 NSing=     8 JSym2X= 0.
 Root      1 has converged.
 Root      2 has converged.
 Root      3 not converged, maximum delta is    0.001410681030101
 Root      4 not converged, maximum delta is    0.010133316564890
 Excitation Energies [eV] at current iteration:
 Root      1 :     3.942806851830080   Change is   -0.000100604080313
 Root      2 :     4.230681620837418   Change is   -0.000010706775591
 Root      3 :     4.534214586287619   Change is   -0.000139957456885
 Root      4 :     5.188264428694418   Change is   -0.004460693239702
 Iteration     7 Dimension    60 NMult    56 NNew      4
 CISAX will form     4 AO SS matrices at one time.
 NMat=     4 NSing=     4 JSym2X= 0.
 Root      1 has converged.
 Root      2 has converged.
 Root      3 has converged.
 Root      4 not converged, maximum delta is    0.002540869736272
 Excitation Energies [eV] at current iteration:
 Root      1 :     3.942803427954667   Change is   -0.000003423875414
 Root      2 :     4.230681534460262   Change is   -0.000000086377157
 Root      3 :     4.534197072762513   Change is   -0.000017513525106
 Root      4 :     5.187803062500559   Change is   -0.000461366193859
 Iteration     8 Dimension    62 NMult    60 NNew      2
 CISAX will form     2 AO SS matrices at one time.
 NMat=     2 NSing=     2 JSym2X= 0.
 Root      1 has converged.
 Root      2 has converged.
 Root      3 has converged.
 Root      4 has converged.
 Excitation Energies [eV] at current iteration:
 Root      1 :     3.942803414121975   Change is   -0.000000013832692
 Root      2 :     4.230681524456520   Change is   -0.000000010003742
 Root      3 :     4.534196987176430   Change is   -0.000000085586083
 Root      4 :     5.187758378213689   Change is   -0.000044684286869
 Convergence achieved on expansion vectors.
 ***********************************************************************
 Excited states from <AA,BB:AA,BB> singles matrix:
 ***********************************************************************
 
 1PDM for each excited state written to RWF  633
 Ground to excited state transition densities written to RWF  633
 Ground to excited state transition electric dipole moments (Au):
       state          X           Y           Z        Dip. S.      Osc.
         1         0.7690      0.3910      2.2589      5.8469      0.5648
         2         0.0396     -0.0025      0.0355      0.0028      0.0003
         3         0.4540      0.1899      1.2677      1.8491      0.2054
         4        -0.0352     -0.4359      0.2764      0.2676      0.0340
 Ground to excited state transition velocity dipole moments (Au):
       state          X           Y           Z        Dip. S.      Osc.
         1        -0.1110     -0.0586     -0.3242      0.1209      0.5561
         2        -0.0066      0.0006     -0.0051      0.0001      0.0003
         3        -0.0736     -0.0289     -0.2067      0.0490      0.1960
         4         0.0092      0.0809     -0.0421      0.0084      0.0294
 Ground to excited state transition magnetic dipole moments (Au):
       state          X           Y           Z
         1         6.3515      1.2270     -2.3943
         2         0.0377     -0.3854     -0.0901
         3         5.2650      0.5122     -1.9069
         4         1.2181      0.0786      0.3573
 Ground to excited state transition velocity quadrupole moments (Au):
       state          XX          YY          ZZ          XY          XZ          YZ
         1        -0.7785      2.6216      0.6273      2.1537     -0.9611      6.7571
         2        -0.0315     -0.0390      0.0049      0.1672     -0.0205      0.0930
         3        -0.7048      1.3278     -0.9748      1.3285     -1.1330      3.8184
         4         0.1033     -3.4459      0.7793      0.0576      0.0886      0.8023
 <0|del|b> * <b|rxdel|0> + <0|del|b> * <b|delr+rdel|0>
 Rotatory Strengths (R) in cgs (10**-40 erg-esu-cm/Gauss)
       state          XX          YY          ZZ    R(velocity)    E-M Angle
         1      -122.3076     46.6036     71.9176     -1.2622       90.02
         2        -1.3700      1.0271      0.3013     -0.0139       90.00
         3       152.6717      0.1147   -187.8842    -11.6993       90.38
         4       -33.9243     11.2216     32.2090      3.1688       88.74
 1/2[<0|r|b>*<b|rxdel|0> + (<0|rxdel|b>*<b|r|0>)*]
 Rotatory Strengths (R) in cgs (10**-40 erg-esu-cm/Gauss)
       state          XX          YY          ZZ     R(length)
         1     -3453.8808   -339.2535   3824.6957     10.5204
         2        -1.0563     -0.6760      2.2641      0.1773
         3     -1690.1546    -68.7962   1709.4087    -16.5140
         4        30.3417     24.2163    -69.8337     -5.0919
  1/2[<0|del|b>*<b|r|0> + (<0|r|b>*<b|del|0>)*] (Au)
       state          X           Y           Z        Dip. S.   Osc.(frdel)
         1        -0.0854     -0.0229     -0.7323      0.8406      0.5604
         2        -0.0003      0.0000     -0.0002      0.0004      0.0003
         3        -0.0334     -0.0055     -0.2621      0.3010      0.2006
         4        -0.0003     -0.0353     -0.0116      0.0472      0.0315

 Excitation energies and oscillator strengths:
 
 Excited state symmetry could not be determined.
 Excited State   1:      Singlet-?Sym    3.9428 eV  314.46 nm  f=0.5648  <S**2>=0.000
      55 -> 56         0.68253
      55 -> 60        -0.10144
 This state for optimization and/or second-order correction.
 Total Energy, E(TD-HF/TD-KS) =  -731.243032697    
 Copying the excited state density for this state as the 1-particle RhoCI density.
 
 Excited state symmetry could not be determined.
 Excited State   2:      Singlet-?Sym    4.2307 eV  293.06 nm  f=0.0003  <S**2>=0.000
      52 -> 56         0.68595
 
 Excited state symmetry could not be determined.
 Excited State   3:      Singlet-?Sym    4.5342 eV  273.44 nm  f=0.2054  <S**2>=0.000
      54 -> 56         0.67248
      55 -> 60         0.14196
 
 Excited state symmetry could not be determined.
 Excited State   4:      Singlet-?Sym    5.1878 eV  238.99 nm  f=0.0340  <S**2>=0.000
      53 -> 56         0.56987
      54 -> 60        -0.17450
      55 -> 60         0.25055
      55 -> 61         0.12063
      55 -> 65         0.14667
 SavETr:  write IOETrn=   770 NScale= 10 NData=  16 NLR=1 NState=    4 LETran=      82.
 Leave Link  914 at Fri Nov  3 00:22:58 2017, MaxMem=  3758096384 cpu:      2858.0
 (Enter /share/apps/gaussian/g09_D01/g09/l601.exe)
 Copying SCF densities to generalized density rwf, IOpCl= 0 IROHF=0.

 **********************************************************************

            Population analysis using the SCF density.

 **********************************************************************

 Alpha  occ. eigenvalues --  -24.81192 -19.23997 -19.23194 -14.50686 -10.38477
 Alpha  occ. eigenvalues --  -10.38273 -10.36418 -10.36169 -10.35315 -10.35081
 Alpha  occ. eigenvalues --  -10.31162 -10.29995 -10.29321 -10.28776 -10.28734
 Alpha  occ. eigenvalues --   -1.31739  -1.14940  -1.10893  -1.10096  -0.96478
 Alpha  occ. eigenvalues --   -0.90444  -0.86972  -0.86187  -0.84772  -0.81331
 Alpha  occ. eigenvalues --   -0.74141  -0.71453  -0.69826  -0.66123  -0.63719
 Alpha  occ. eigenvalues --   -0.63037  -0.60668  -0.59540  -0.59346  -0.57784
 Alpha  occ. eigenvalues --   -0.55211  -0.54676  -0.53122  -0.52645  -0.52589
 Alpha  occ. eigenvalues --   -0.52307  -0.51061  -0.50560  -0.50271  -0.49202
 Alpha  occ. eigenvalues --   -0.47514  -0.46542  -0.45672  -0.43011  -0.42609
 Alpha  occ. eigenvalues --   -0.41713  -0.34377  -0.33604  -0.31173  -0.29099
 Alpha virt. eigenvalues --   -0.00938   0.02136   0.03750   0.04911   0.05062
 Alpha virt. eigenvalues --    0.05416   0.06131   0.06659   0.07362   0.07528
 Alpha virt. eigenvalues --    0.07661   0.07982   0.08930   0.10206   0.10886
 Alpha virt. eigenvalues --    0.11306   0.12292   0.12655   0.12840   0.13074
 Alpha virt. eigenvalues --    0.13567   0.14107   0.14412   0.14784   0.15761
 Alpha virt. eigenvalues --    0.16205   0.16273   0.16678   0.16752   0.17113
 Alpha virt. eigenvalues --    0.17902   0.18036   0.18332   0.18791   0.18885
 Alpha virt. eigenvalues --    0.19429   0.19613   0.20291   0.20998   0.21256
 Alpha virt. eigenvalues --    0.21431   0.21606   0.22074   0.22490   0.23055
 Alpha virt. eigenvalues --    0.23723   0.23885   0.23996   0.24922   0.25318
 Alpha virt. eigenvalues --    0.25575   0.26274   0.26746   0.26821   0.27252
 Alpha virt. eigenvalues --    0.27703   0.28083   0.28581   0.29187   0.29466
 Alpha virt. eigenvalues --    0.30081   0.30807   0.31785   0.32206   0.32771
 Alpha virt. eigenvalues --    0.33204   0.33352   0.34120   0.34859   0.35400
 Alpha virt. eigenvalues --    0.36033   0.36629   0.37239   0.37516   0.37742
 Alpha virt. eigenvalues --    0.38896   0.39003   0.39752   0.40044   0.40618
 Alpha virt. eigenvalues --    0.40937   0.42534   0.42799   0.43387   0.44067
 Alpha virt. eigenvalues --    0.44388   0.44675   0.45305   0.46667   0.46882
 Alpha virt. eigenvalues --    0.49182   0.49469   0.49886   0.50150   0.50851
 Alpha virt. eigenvalues --    0.51604   0.52562   0.53919   0.54328   0.55803
 Alpha virt. eigenvalues --    0.57226   0.59296   0.59951   0.61425   0.62851
 Alpha virt. eigenvalues --    0.63213   0.63670   0.65132   0.65369   0.65975
 Alpha virt. eigenvalues --    0.66646   0.67237   0.67737   0.68580   0.69182
 Alpha virt. eigenvalues --    0.69549   0.69815   0.70203   0.70566   0.71514
 Alpha virt. eigenvalues --    0.72888   0.73904   0.74651   0.75424   0.75852
 Alpha virt. eigenvalues --    0.76648   0.77446   0.79164   0.79735   0.80096
 Alpha virt. eigenvalues --    0.81005   0.81674   0.84290   0.85743   0.86721
 Alpha virt. eigenvalues --    0.87962   0.88994   0.91364   0.92832   0.93943
 Alpha virt. eigenvalues --    0.94449   0.96267   0.96664   0.97531   0.97863
 Alpha virt. eigenvalues --    0.98548   1.01502   1.02650   1.03770   1.04142
 Alpha virt. eigenvalues --    1.04615   1.05313   1.07323   1.08051   1.09785
 Alpha virt. eigenvalues --    1.10826   1.11655   1.12324   1.13306   1.14512
 Alpha virt. eigenvalues --    1.16123   1.16945   1.17487   1.18954   1.19871
 Alpha virt. eigenvalues --    1.21001   1.23557   1.25881   1.28773   1.31420
 Alpha virt. eigenvalues --    1.32670   1.34225   1.34868   1.36085   1.37578
 Alpha virt. eigenvalues --    1.39631   1.41818   1.43077   1.47511   1.48741
 Alpha virt. eigenvalues --    1.49615   1.52394   1.52846   1.53519   1.54045
 Alpha virt. eigenvalues --    1.55796   1.56689   1.57414   1.59248   1.60436
 Alpha virt. eigenvalues --    1.61567   1.62107   1.62492   1.63723   1.64138
 Alpha virt. eigenvalues --    1.64239   1.64765   1.66687   1.68478   1.68924
 Alpha virt. eigenvalues --    1.71150   1.71442   1.74017   1.74511   1.75605
 Alpha virt. eigenvalues --    1.76745   1.78783   1.79951   1.80701   1.81604
 Alpha virt. eigenvalues --    1.83700   1.84411   1.85842   1.86362   1.89819
 Alpha virt. eigenvalues --    1.91931   1.95018   1.96482   1.97101   1.98024
 Alpha virt. eigenvalues --    1.99819   2.00478   2.02066   2.03622   2.04713
 Alpha virt. eigenvalues --    2.05358   2.05982   2.06953   2.07788   2.09189
 Alpha virt. eigenvalues --    2.10448   2.12977   2.15772   2.16790   2.17302
 Alpha virt. eigenvalues --    2.17654   2.19646   2.21756   2.22275   2.22797
 Alpha virt. eigenvalues --    2.25220   2.29547   2.30574   2.36052   2.38311
 Alpha virt. eigenvalues --    2.40540   2.41704   2.44941   2.45515   2.48588
 Alpha virt. eigenvalues --    2.49654   2.51009   2.53313   2.54323   2.57106
 Alpha virt. eigenvalues --    2.57559   2.59930   2.62245   2.62817   2.66255
 Alpha virt. eigenvalues --    2.68891   2.69854   2.70898   2.72979   2.74842
 Alpha virt. eigenvalues --    2.75089   2.76701   2.78978   2.81190   2.82685
 Alpha virt. eigenvalues --    2.83584   2.84212   2.84640   2.85536   2.89230
 Alpha virt. eigenvalues --    2.89421   2.92551   2.93075   2.93596   2.96660
 Alpha virt. eigenvalues --    2.97478   2.97974   2.99943   3.03171   3.06556
 Alpha virt. eigenvalues --    3.10343   3.12022   3.14146   3.17711   3.19259
 Alpha virt. eigenvalues --    3.21156   3.22264   3.24997   3.27729   3.30411
 Alpha virt. eigenvalues --    3.31123   3.34238   3.36901   3.41129   3.47030
 Alpha virt. eigenvalues --    3.50582   3.53849   3.56597   3.60997   3.65775
 Alpha virt. eigenvalues --    3.66436   3.69369   3.71244   3.76350   3.77181
 Alpha virt. eigenvalues --    3.79857   3.80299   3.81997   3.87937   3.88676
 Alpha virt. eigenvalues --    3.91435   3.92489   3.95732   4.03012   4.06121
 Alpha virt. eigenvalues --    4.07248   4.11307   4.16910   4.19904   4.28075
 Alpha virt. eigenvalues --    4.31862   4.39744   4.64317   4.91590   4.94890
 Alpha virt. eigenvalues --    4.95215   5.15202   5.16151   5.18381   5.36582
 Alpha virt. eigenvalues --    5.66293   5.83664   5.99160   6.44778   6.57225
 Alpha virt. eigenvalues --    6.83823  23.69254  23.90446  24.01098  24.02480
 Alpha virt. eigenvalues --   24.02993  24.03432  24.05768  24.13209  24.21432
 Alpha virt. eigenvalues --   24.23215  24.29325  35.68757  50.14106  50.17659
 Alpha virt. eigenvalues --   66.95280
          Condensed to atoms (all electrons):
               1          2          3          4          5          6
     1  C    8.611133  -0.567487   0.608231   0.058466  -0.174998   0.296000
     2  C   -0.567487  11.434734  -0.214642  -2.557032   0.672264  -1.032567
     3  F    0.608231  -0.214642   9.132330  -0.202920  -0.019756  -0.077996
     4  C    0.058466  -2.557032  -0.202920   9.263467  -0.082684   0.572547
     5  H   -0.174998   0.672264  -0.019756  -0.082684   0.452963  -0.051034
     6  C    0.296000  -1.032567  -0.077996   0.572547  -0.051034  17.966026
     7  C    0.049289   1.822923  -0.054170   0.841563   0.032311  -4.381498
     8  H   -0.172247  -0.140023  -0.023969   0.518176  -0.002291   0.072959
     9  O    0.000793  -0.363613  -0.000358   0.014711  -0.017456   0.318147
    10  C   -0.747170  -3.210516   0.008634  -1.203708  -0.077644   2.535014
    11  H    0.050459   0.164278   0.002625  -0.127051   0.003813  -0.056861
    12  H    0.003339   0.034742  -0.000136   0.018538   0.000409  -0.007221
    13  C   -0.704768   0.066040   0.004612  -0.374510   0.004974  -5.139714
    14  O   -0.011263  -0.033812  -0.000019   0.002899  -0.000597  -0.146094
    15  C   -0.461001   0.336645   0.002599  -0.285341  -0.000301  -3.925577
    16  C   -0.174411  -0.104248   0.000379   0.045898  -0.000152  -1.124812
    17  H   -0.010152  -0.016923  -0.000312  -0.044789  -0.000868  -0.002421
    18  H   -0.000698   0.001911   0.000012   0.002744  -0.000111  -0.056369
    19  N   -0.000260  -0.000021   0.000000  -0.000381  -0.000024   0.001873
    20  C   -0.002298   0.008674   0.000007  -0.001102   0.000082  -0.027038
    21  C   -0.000464  -0.000531   0.000000   0.000766   0.000020  -0.000975
    22  H    0.000300  -0.000813   0.000001   0.001110  -0.000008  -0.000804
    23  H   -0.000110   0.000423   0.000000  -0.000364   0.000004   0.000289
    24  H   -0.000289  -0.001084   0.000000   0.001443  -0.000016  -0.001919
    25  H   -0.000010   0.000014   0.000000  -0.000386  -0.000001   0.003983
    26  H    0.000003  -0.000006   0.000000   0.000015   0.000000  -0.000026
    27  H   -0.000001  -0.000001   0.000000   0.000062   0.000001  -0.000552
               7          8          9         10         11         12
     1  C    0.049289  -0.172247   0.000793  -0.747170   0.050459   0.003339
     2  C    1.822923  -0.140023  -0.363613  -3.210516   0.164278   0.034742
     3  F   -0.054170  -0.023969  -0.000358   0.008634   0.002625  -0.000136
     4  C    0.841563   0.518176   0.014711  -1.203708  -0.127051   0.018538
     5  H    0.032311  -0.002291  -0.017456  -0.077644   0.003813   0.000409
     6  C   -4.381498   0.072959   0.318147   2.535014  -0.056861  -0.007221
     7  C   14.364241  -0.063272  -0.027466  -4.968335   0.731917   0.053468
     8  H   -0.063272   0.479925   0.000432   0.136504  -0.032328   0.000529
     9  O   -0.027466   0.000432   8.211997   0.034401  -0.002770   0.203706
    10  C   -4.968335   0.136504   0.034401  18.861710  -0.321171  -0.065100
    11  H    0.731917  -0.032328  -0.002770  -0.321171   0.608365   0.001816
    12  H    0.053468   0.000529   0.203706  -0.065100   0.001816   0.260349
    13  C    1.403409  -0.019889  -0.027209   0.706697   0.042937   0.016498
    14  O   -0.188648   0.000594   0.016754  -0.058150  -0.002033   0.095467
    15  C   -0.138981  -0.016987  -0.023325  -5.030676   0.025951  -0.014042
    16  C   -1.912885   0.005952   0.025572  -2.276223  -0.140350  -0.034677
    17  H   -0.043079   0.004698  -0.000473  -0.096607  -0.026733  -0.000710
    18  H    0.043228  -0.000247   0.000608  -0.078233   0.001558   0.000607
    19  N   -0.003960   0.000177  -0.000160  -0.016453  -0.005468   0.000162
    20  C    0.011502  -0.001022  -0.000028  -0.218728   0.007234  -0.001323
    21  C   -0.015961   0.000097   0.000501   0.018397  -0.002292  -0.000171
    22  H    0.002527   0.000028   0.000050   0.002416  -0.000695   0.000073
    23  H   -0.004406  -0.000066  -0.000005  -0.006855   0.000495  -0.000132
    24  H   -0.007968   0.000200   0.000021  -0.008382  -0.005267  -0.000071
    25  H   -0.004688   0.000002  -0.000142   0.006818   0.000390   0.000090
    26  H    0.000171   0.000005   0.000006   0.001402  -0.000073   0.000038
    27  H    0.000972   0.000000   0.000009  -0.001024  -0.000059   0.000016
              13         14         15         16         17         18
     1  C   -0.704768  -0.011263  -0.461001  -0.174411  -0.010152  -0.000698
     2  C    0.066040  -0.033812   0.336645  -0.104248  -0.016923   0.001911
     3  F    0.004612  -0.000019   0.002599   0.000379  -0.000312   0.000012
     4  C   -0.374510   0.002899  -0.285341   0.045898  -0.044789   0.002744
     5  H    0.004974  -0.000597  -0.000301  -0.000152  -0.000868  -0.000111
     6  C   -5.139714  -0.146094  -3.925577  -1.124812  -0.002421  -0.056369
     7  C    1.403409  -0.188648  -0.138981  -1.912885  -0.043079   0.043228
     8  H   -0.019889   0.000594  -0.016987   0.005952   0.004698  -0.000247
     9  O   -0.027209   0.016754  -0.023325   0.025572  -0.000473   0.000608
    10  C    0.706697  -0.058150  -5.030676  -2.276223  -0.096607  -0.078233
    11  H    0.042937  -0.002033   0.025951  -0.140350  -0.026733   0.001558
    12  H    0.016498   0.095467  -0.014042  -0.034677  -0.000710   0.000607
    13  C   12.175077   0.795828   1.756631  -3.938620  -0.003881   0.102918
    14  O    0.795828   8.183783  -0.308304   0.037719  -0.010251   0.003905
    15  C    1.756631  -0.308304  12.367309   1.753910   0.491862   0.106461
    16  C   -3.938620   0.037719   1.753910  12.642823   0.006288   0.276023
    17  H   -0.003881  -0.010251   0.491862   0.006288   0.665024   0.004085
    18  H    0.102918   0.003905   0.106461   0.276023   0.004085   0.456120
    19  N   -0.026262   0.003484  -0.225275   0.192205  -0.031740  -0.064000
    20  C   -0.206388  -0.001564   0.164220   0.077502   0.012636   0.006708
    21  C   -0.107085   0.001651  -0.095482  -0.068180  -0.009642  -0.043476
    22  H    0.011502   0.000335  -0.005511  -0.013588  -0.010377  -0.000810
    23  H   -0.018881   0.000029   0.020313   0.026743   0.001311  -0.000994
    24  H   -0.034326   0.000384  -0.040662   0.056908   0.008572   0.001214
    25  H    0.010216   0.000179  -0.000474   0.063700  -0.002789  -0.009034
    26  H    0.001761   0.000078   0.011213  -0.017285   0.000599   0.001143
    27  H    0.002888  -0.000046   0.013253  -0.026837   0.000947   0.003512
              19         20         21         22         23         24
     1  C   -0.000260  -0.002298  -0.000464   0.000300  -0.000110  -0.000289
     2  C   -0.000021   0.008674  -0.000531  -0.000813   0.000423  -0.001084
     3  F    0.000000   0.000007   0.000000   0.000001   0.000000   0.000000
     4  C   -0.000381  -0.001102   0.000766   0.001110  -0.000364   0.001443
     5  H   -0.000024   0.000082   0.000020  -0.000008   0.000004  -0.000016
     6  C    0.001873  -0.027038  -0.000975  -0.000804   0.000289  -0.001919
     7  C   -0.003960   0.011502  -0.015961   0.002527  -0.004406  -0.007968
     8  H    0.000177  -0.001022   0.000097   0.000028  -0.000066   0.000200
     9  O   -0.000160  -0.000028   0.000501   0.000050  -0.000005   0.000021
    10  C   -0.016453  -0.218728   0.018397   0.002416  -0.006855  -0.008382
    11  H   -0.005468   0.007234  -0.002292  -0.000695   0.000495  -0.005267
    12  H    0.000162  -0.001323  -0.000171   0.000073  -0.000132  -0.000071
    13  C   -0.026262  -0.206388  -0.107085   0.011502  -0.018881  -0.034326
    14  O    0.003484  -0.001564   0.001651   0.000335   0.000029   0.000384
    15  C   -0.225275   0.164220  -0.095482  -0.005511   0.020313  -0.040662
    16  C    0.192205   0.077502  -0.068180  -0.013588   0.026743   0.056908
    17  H   -0.031740   0.012636  -0.009642  -0.010377   0.001311   0.008572
    18  H   -0.064000   0.006708  -0.043476  -0.000810  -0.000994   0.001214
    19  N    6.855194   0.231976   0.277965  -0.048203  -0.049921  -0.038288
    20  C    0.231976   5.238654  -0.069148   0.415913   0.387384   0.414074
    21  C    0.277965  -0.069148   5.201508  -0.002689   0.006531   0.006602
    22  H   -0.048203   0.415913  -0.002689   0.518239  -0.016930  -0.051037
    23  H   -0.049921   0.387384   0.006531  -0.016930   0.483197  -0.021581
    24  H   -0.038288   0.414074   0.006602  -0.051037  -0.021581   0.532903
    25  H   -0.099846  -0.002176   0.405434  -0.001041   0.003664  -0.002379
    26  H   -0.046158  -0.006038   0.404591   0.002961  -0.005705  -0.001633
    27  H   -0.050074   0.006116   0.399743  -0.000963  -0.005897   0.002555
              25         26         27
     1  C   -0.000010   0.000003  -0.000001
     2  C    0.000014  -0.000006  -0.000001
     3  F    0.000000   0.000000   0.000000
     4  C   -0.000386   0.000015   0.000062
     5  H   -0.000001   0.000000   0.000001
     6  C    0.003983  -0.000026  -0.000552
     7  C   -0.004688   0.000171   0.000972
     8  H    0.000002   0.000005   0.000000
     9  O   -0.000142   0.000006   0.000009
    10  C    0.006818   0.001402  -0.001024
    11  H    0.000390  -0.000073  -0.000059
    12  H    0.000090   0.000038   0.000016
    13  C    0.010216   0.001761   0.002888
    14  O    0.000179   0.000078  -0.000046
    15  C   -0.000474   0.011213   0.013253
    16  C    0.063700  -0.017285  -0.026837
    17  H   -0.002789   0.000599   0.000947
    18  H   -0.009034   0.001143   0.003512
    19  N   -0.099846  -0.046158  -0.050074
    20  C   -0.002176  -0.006038   0.006116
    21  C    0.405434   0.404591   0.399743
    22  H   -0.001041   0.002961  -0.000963
    23  H    0.003664  -0.005705  -0.005897
    24  H   -0.002379  -0.001633   0.002555
    25  H    0.532431  -0.020705  -0.026392
    26  H   -0.020705   0.554984  -0.064630
    27  H   -0.026392  -0.064630   0.552571
 Mulliken charges:
               1
     1  C   -0.650385
     2  C   -0.299330
     3  F   -0.165151
     4  C   -0.462135
     5  H    0.261100
     6  C    0.266637
     7  C   -1.542204
     8  H    0.252062
     9  O   -0.364701
    10  C    2.072983
    11  H    0.081312
    12  H    0.433736
    13  C   -0.500456
    14  O   -0.382308
    15  C   -0.478430
    16  C    0.620646
    17  H    0.115724
    18  H    0.241216
    19  N    0.143459
    20  C   -0.445832
    21  C   -0.307709
    22  H    0.198016
    23  H    0.201461
    24  H    0.190027
    25  H    0.143140
    26  H    0.183290
    27  H    0.193831
 Sum of Mulliken charges =   0.00000
 Mulliken charges with hydrogens summed into heavy atoms:
               1
     1  C   -0.650385
     2  C   -0.038230
     3  F   -0.165151
     4  C   -0.210073
     6  C    0.266637
     7  C   -1.460891
     9  O    0.069034
    10  C    2.072983
    13  C   -0.500456
    14  O   -0.382308
    15  C   -0.362706
    16  C    0.861862
    19  N    0.143459
    20  C    0.143671
    21  C    0.212553
 Electronic spatial extent (au):  <R**2>=          53735.4694
 Charge=              0.0000 electrons
 Dipole moment (field-independent basis, Debye):
    X=              3.4363    Y=              4.2757    Z=              8.0459  Tot=              9.7379
 Quadrupole moment (field-independent basis, Debye-Ang):
   XX=            -77.7598   YY=           -184.3045   ZZ=            -86.0243
   XY=            -29.5635   XZ=             16.7892   YZ=            -88.7934
 Traceless Quadrupole moment (field-independent basis, Debye-Ang):
   XX=             38.2698   YY=            -68.2750   ZZ=             30.0052
   XY=            -29.5635   XZ=             16.7892   YZ=            -88.7934
 Octapole moment (field-independent basis, Debye-Ang**2):
  XXX=           -395.6229  YYY=           4562.6587  ZZZ=            404.8006  XYY=            102.6365
  XXY=            872.6915  XXZ=            132.6707  XZZ=            -94.1942  YZZ=            937.3482
  YYZ=           1078.4704  XYZ=           -183.4096
 Hexadecapole moment (field-independent basis, Debye-Ang**3):
 XXXX=          -1848.3060 YYYY=         -90645.7842 ZZZZ=          -5364.0920 XXXY=           4283.8279
 XXXZ=           -131.3025 YYYX=           2702.5718 YYYZ=         -14169.2260 ZZZX=            -23.3834
 ZZZY=          -4331.7042 XXYY=         -10234.8944 XXZZ=          -1012.9018 YYZZ=         -11196.0967
 XXYZ=          -1448.2361 YYXZ=           1929.1096 ZZXY=           1034.4011
 N-N= 9.353935657433D+02 E-N=-3.581264488180D+03  KE= 7.281632942790D+02
 Leave Link  601 at Fri Nov  3 00:22:59 2017, MaxMem=  3758096384 cpu:         0.2
 (Enter /share/apps/gaussian/g09_D01/g09/l9999.exe)
 1\1\GINC-NXV33\SP\RwB97XD TD-FC\6-311++G(d,p)\C11H12F1N1O2\BTX008\03-N
 ov-2017\0\\#p wb97xd 6-311++G** td=(nstates=4) nosymm\\Title\\0,1\C,0,
 0.711266,-10.352067,-4.455065\C,0,0.524838,-11.682836,-4.135836\F,0,0.
 400627,-9.952529,-5.735743\C,0,1.187527,-9.399635,-3.55425\H,0,0.13003
 7,-12.394456,-4.865141\C,0,0.804151,-12.09543,-2.821006\C,0,1.478955,-
 9.829641,-2.265862\H,0,1.306509,-8.355346,-3.847943\O,0,0.587417,-13.3
 77633,-2.483228\C,0,1.302394,-11.164375,-1.854181\H,0,1.838291,-9.0855
 65,-1.554816\H,0,0.843731,-13.385183,-1.443578\C,0,1.566194,-11.642445
 ,-0.477235\O,0,1.294958,-12.881802,-0.216549\C,0,2.10687,-10.782651,0.
 521136\C,0,2.324617,-11.24733,1.805567\H,0,2.356875,-9.756222,0.265331
 \H,0,2.065237,-12.284592,2.038284\N,0,2.816311,-10.546919,2.828701\C,0
 ,3.173727,-9.143661,2.684511\C,0,3.066717,-11.165084,4.124274\H,0,4.01
 6486,-9.031414,1.982362\H,0,3.462633,-8.746043,3.666542\H,0,2.313741,-
 8.568269,2.305379\H,0,2.73056,-12.206731,4.09445\H,0,2.524709,-10.6169
 78,4.914416\H,0,4.144656,-11.130952,4.359239\\Version=ES64L-G09RevD.01
 \HF=-731.3879281\RMSD=5.414e-09\PG=C01 [X(C11H12F1N1O2)]\\@


 THEREFORE SHALL EVIL COME UPON THEE...
 THOU SHALT NOT KNOW FROM WHENCE IT RISETH...
 AND MISCHIEF SHALL FALL UPON THEE...
 THOU SHALT NOT BE ABLE TO PUT IT OFF...
 AND DESOLATION SHALL COME UPON THEE SUDDENLY...
 WHICH THOU SHALT NOT KNOW...

                                         ISAIAH 47.11
 Job cpu time:       0 days  1 hours  6 minutes 47.0 seconds.
 File lengths (MBytes):  RWF=    262 Int=      0 D2E=      0 Chk=     30 Scr=      1
 Normal termination of Gaussian 09 at Fri Nov  3 00:22:59 2017.
