 Entering Gaussian System, Link 0=g09
 Input=2hp_2_k846-mega_dimer_3_mon-1.com
 Output=2hp_2_k846-mega_dimer_3_mon-1.out
 Initial command:
 /share/apps/gaussian/g09_D01/g09/l1.exe "/tmp/160999.1.all.q/Gau-32076.inp" -scrdir="/tmp/160999.1.all.q/"
 Entering Link 1 = /share/apps/gaussian/g09_D01/g09/l1.exe PID=     32078.
  
 Copyright (c) 1988,1990,1992,1993,1995,1998,2003,2009,2013,
            Gaussian, Inc.  All Rights Reserved.
  
 This is part of the Gaussian(R) 09 program.  It is based on
 the Gaussian(R) 03 system (copyright 2003, Gaussian, Inc.),
 the Gaussian(R) 98 system (copyright 1998, Gaussian, Inc.),
 the Gaussian(R) 94 system (copyright 1995, Gaussian, Inc.),
 the Gaussian 92(TM) system (copyright 1992, Gaussian, Inc.),
 the Gaussian 90(TM) system (copyright 1990, Gaussian, Inc.),
 the Gaussian 88(TM) system (copyright 1988, Gaussian, Inc.),
 the Gaussian 86(TM) system (copyright 1986, Carnegie Mellon
 University), and the Gaussian 82(TM) system (copyright 1983,
 Carnegie Mellon University). Gaussian is a federally registered
 trademark of Gaussian, Inc.
  
 This software contains proprietary and confidential information,
 including trade secrets, belonging to Gaussian, Inc.
  
 This software is provided under written license and may be
 used, copied, transmitted, or stored only in accord with that
 written license.
  
 The following legend is applicable only to US Government
 contracts under FAR:
  
                    RESTRICTED RIGHTS LEGEND
  
 Use, reproduction and disclosure by the US Government is
 subject to restrictions as set forth in subparagraphs (a)
 and (c) of the Commercial Computer Software - Restricted
 Rights clause in FAR 52.227-19.
  
 Gaussian, Inc.
 340 Quinnipiac St., Bldg. 40, Wallingford CT 06492
  
  
 ---------------------------------------------------------------
 Warning -- This program may not be used in any manner that
 competes with the business of Gaussian, Inc. or will provide
 assistance to any competitor of Gaussian, Inc.  The licensee
 of this program is prohibited from giving any competitor of
 Gaussian, Inc. access to this program.  By using this program,
 the user acknowledges that Gaussian, Inc. is engaged in the
 business of creating and licensing software in the field of
 computational chemistry and represents and warrants to the
 licensee that it is not a competitor of Gaussian, Inc. and that
 it will not use this program in any manner prohibited above.
 ---------------------------------------------------------------
  

 Cite this work as:
 Gaussian 09, Revision D.01,
 M. J. Frisch, G. W. Trucks, H. B. Schlegel, G. E. Scuseria, 
 M. A. Robb, J. R. Cheeseman, G. Scalmani, V. Barone, B. Mennucci, 
 G. A. Petersson, H. Nakatsuji, M. Caricato, X. Li, H. P. Hratchian, 
 A. F. Izmaylov, J. Bloino, G. Zheng, J. L. Sonnenberg, M. Hada, 
 M. Ehara, K. Toyota, R. Fukuda, J. Hasegawa, M. Ishida, T. Nakajima, 
 Y. Honda, O. Kitao, H. Nakai, T. Vreven, J. A. Montgomery, Jr., 
 J. E. Peralta, F. Ogliaro, M. Bearpark, J. J. Heyd, E. Brothers, 
 K. N. Kudin, V. N. Staroverov, T. Keith, R. Kobayashi, J. Normand, 
 K. Raghavachari, A. Rendell, J. C. Burant, S. S. Iyengar, J. Tomasi, 
 M. Cossi, N. Rega, J. M. Millam, M. Klene, J. E. Knox, J. B. Cross, 
 V. Bakken, C. Adamo, J. Jaramillo, R. Gomperts, R. E. Stratmann, 
 O. Yazyev, A. J. Austin, R. Cammi, C. Pomelli, J. W. Ochterski, 
 R. L. Martin, K. Morokuma, V. G. Zakrzewski, G. A. Voth, 
 P. Salvador, J. J. Dannenberg, S. Dapprich, A. D. Daniels, 
 O. Farkas, J. B. Foresman, J. V. Ortiz, J. Cioslowski, 
 and D. J. Fox, Gaussian, Inc., Wallingford CT, 2013.
 
 ******************************************
 Gaussian 09:  ES64L-G09RevD.01 24-Apr-2013
                 3-Nov-2017 
 ******************************************
 %chk=2hp_2_k846-mega_dimer_3_mon-1.chk
 %nproc=4
 Will use up to    4 processors via shared memory.
 %mem=28GB
 ------------------------------------------
 #p wb97xd 6-311++G** td=(nstates=4) nosymm
 ------------------------------------------
 1/38=1/1;
 2/12=2,15=1,17=6,18=5,40=1/2;
 3/5=4,6=6,7=1111,11=9,16=1,25=1,30=1,74=-58/1,2,8,3;
 4//1;
 5/5=2,38=5/2;
 8/6=1,10=2,108=4/1;
 9/41=4,42=1,70=2/14;
 6/7=2,8=2,9=2,10=2/1;
 99/5=1,9=1/99;
 Leave Link    1 at Fri Nov  3 00:26:18 2017, MaxMem=  3758096384 cpu:         0.3
 (Enter /share/apps/gaussian/g09_D01/g09/l101.exe)
 -----
 Title
 -----
 Symbolic Z-matrix:
 Charge =  0 Multiplicity = 1
 C                     3.00016  -4.77258  -1.6615 
 H                     2.51338  -4.10673  -2.37699 
 C                     3.41451  -4.284    -0.41063 
 C                     3.234    -6.1005   -1.95282 
 O                     3.23303  -2.98515  -0.13393 
 C                     4.03355  -5.15813   0.54083 
 C                     3.85791  -6.98783  -1.07929 
 F                     2.84784  -6.56769  -3.18912 
 H                     3.70348  -2.88824   0.81453 
 C                     4.24876  -6.4952    0.15908 
 C                     4.46516  -4.59754   1.84511 
 H                     4.07848  -8.01002  -1.3874 
 O                     4.36921  -3.32061   1.99647 
 H                     4.77836  -7.17343   0.82646 
 C                     4.95416  -5.44172   2.88486 
 C                     5.43064  -4.89474   4.06541 
 H                     4.91738  -6.52144   2.7598 
 H                     5.46429  -3.8042    4.1485 
 N                     5.84625  -5.55459   5.14807 
 C                     5.78621  -7.00937   5.2534 
 C                     6.28994  -4.84965   6.3432 
 H                     4.76091  -7.34242   5.50094 
 H                     6.10755  -7.48123   4.3147 
 H                     6.46194  -7.33795   6.05664 
 H                     5.61555  -5.06831   7.19041 
 H                     6.3002   -3.76986   6.15443 
 H                     7.30109  -5.19043   6.62272 
 
 NAtoms=     27 NQM=       27 NQMF=       0 NMMI=      0 NMMIF=      0
                NMic=       0 NMicF=      0.
                    Isotopes and Nuclear Properties:
 (Nuclear quadrupole moments (NQMom) in fm**2, nuclear magnetic moments (NMagM)
  in nuclear magnetons)

  Atom         1           2           3           4           5           6           7           8           9          10
 IAtWgt=          12           1          12          12          16          12          12          19           1          12
 AtmWgt=  12.0000000   1.0078250  12.0000000  12.0000000  15.9949146  12.0000000  12.0000000  18.9984033   1.0078250  12.0000000
 NucSpn=           0           1           0           0           0           0           0           1           1           0
 AtZEff=   0.0000000   0.0000000   0.0000000   0.0000000   0.0000000   0.0000000   0.0000000   0.0000000   0.0000000   0.0000000
 NQMom=    0.0000000   0.0000000   0.0000000   0.0000000   0.0000000   0.0000000   0.0000000   0.0000000   0.0000000   0.0000000
 NMagM=    0.0000000   2.7928460   0.0000000   0.0000000   0.0000000   0.0000000   0.0000000   2.6288670   2.7928460   0.0000000
 AtZNuc=   6.0000000   1.0000000   6.0000000   6.0000000   8.0000000   6.0000000   6.0000000   9.0000000   1.0000000   6.0000000

  Atom        11          12          13          14          15          16          17          18          19          20
 IAtWgt=          12           1          16           1          12          12           1           1          14          12
 AtmWgt=  12.0000000   1.0078250  15.9949146   1.0078250  12.0000000  12.0000000   1.0078250   1.0078250  14.0030740  12.0000000
 NucSpn=           0           1           0           1           0           0           1           1           2           0
 AtZEff=   0.0000000   0.0000000   0.0000000   0.0000000   0.0000000   0.0000000   0.0000000   0.0000000   0.0000000   0.0000000
 NQMom=    0.0000000   0.0000000   0.0000000   0.0000000   0.0000000   0.0000000   0.0000000   0.0000000   2.0440000   0.0000000
 NMagM=    0.0000000   2.7928460   0.0000000   2.7928460   0.0000000   0.0000000   2.7928460   2.7928460   0.4037610   0.0000000
 AtZNuc=   6.0000000   1.0000000   8.0000000   1.0000000   6.0000000   6.0000000   1.0000000   1.0000000   7.0000000   6.0000000

  Atom        21          22          23          24          25          26          27
 IAtWgt=          12           1           1           1           1           1           1
 AtmWgt=  12.0000000   1.0078250   1.0078250   1.0078250   1.0078250   1.0078250   1.0078250
 NucSpn=           0           1           1           1           1           1           1
 AtZEff=   0.0000000   0.0000000   0.0000000   0.0000000   0.0000000   0.0000000   0.0000000
 NQMom=    0.0000000   0.0000000   0.0000000   0.0000000   0.0000000   0.0000000   0.0000000
 NMagM=    0.0000000   2.7928460   2.7928460   2.7928460   2.7928460   2.7928460   2.7928460
 AtZNuc=   6.0000000   1.0000000   1.0000000   1.0000000   1.0000000   1.0000000   1.0000000
 Leave Link  101 at Fri Nov  3 00:26:18 2017, MaxMem=  3758096384 cpu:         0.3
 (Enter /share/apps/gaussian/g09_D01/g09/l202.exe)
                          Input orientation:                          
 ---------------------------------------------------------------------
 Center     Atomic      Atomic             Coordinates (Angstroms)
 Number     Number       Type             X           Y           Z
 ---------------------------------------------------------------------
      1          6           0        3.000161   -4.772584   -1.661495
      2          1           0        2.513382   -4.106730   -2.376989
      3          6           0        3.414508   -4.284001   -0.410632
      4          6           0        3.234001   -6.100500   -1.952818
      5          8           0        3.233029   -2.985146   -0.133933
      6          6           0        4.033553   -5.158132    0.540832
      7          6           0        3.857905   -6.987827   -1.079294
      8          9           0        2.847843   -6.567691   -3.189117
      9          1           0        3.703481   -2.888237    0.814525
     10          6           0        4.248757   -6.495203    0.159082
     11          6           0        4.465162   -4.597544    1.845107
     12          1           0        4.078481   -8.010016   -1.387404
     13          8           0        4.369205   -3.320608    1.996474
     14          1           0        4.778356   -7.173431    0.826463
     15          6           0        4.954161   -5.441719    2.884855
     16          6           0        5.430636   -4.894741    4.065405
     17          1           0        4.917383   -6.521437    2.759800
     18          1           0        5.464291   -3.804198    4.148496
     19          7           0        5.846253   -5.554590    5.148074
     20          6           0        5.786213   -7.009373    5.253400
     21          6           0        6.289942   -4.849653    6.343200
     22          1           0        4.760907   -7.342420    5.500937
     23          1           0        6.107555   -7.481233    4.314697
     24          1           0        6.461944   -7.337950    6.056641
     25          1           0        5.615546   -5.068313    7.190408
     26          1           0        6.300203   -3.769858    6.154429
     27          1           0        7.301089   -5.190434    6.622721
 ---------------------------------------------------------------------
                    Distance matrix (angstroms):
                    1          2          3          4          5
     1  C    0.000000
     2  H    1.091901   0.000000
     3  C    1.405367   2.170256   0.000000
     4  C    1.379460   2.162020   2.389684   0.000000
     5  O    2.362754   2.609050   1.340344   3.607461   0.000000
     6  C    2.463086   3.453990   1.432692   2.783097   2.412056
     7  C    2.445810   3.434017   2.820352   1.392713   4.160004
     8  F    2.362041   2.612995   3.640924   1.376888   4.724103
     9  H    3.190000   3.617571   1.879540   4.265821   1.063151
    10  C    2.800162   3.892041   2.431041   2.376056   3.665796
    11  C    3.804356   4.677225   2.508095   4.266013   2.834533
    12  H    3.423283   4.320238   3.908725   2.163121   5.247409
    13  O    4.166924   4.815521   2.762921   4.961189   2.437635
    14  H    3.887927   4.979645   3.426265   3.355684   4.566413
    15  C    4.993511   5.952025   3.817208   5.176488   4.255600
    16  C    6.222501   7.115882   4.946987   6.519054   5.109840
    17  H    5.126605   6.164141   4.161297   5.021925   4.869917
    18  H    6.384803   7.168078   5.021700   6.890082   4.897813
    19  N    7.421725   8.356489   6.198951   7.585812   6.428886
    20  C    7.783385   8.795430   6.718177   7.698663   7.192809
    21  C    8.654695   9.531843   7.362223   8.929015   7.400970
    22  H    7.810552   8.808109   6.790682   7.709233   7.285054
    23  H    7.259996   8.311679   6.309004   7.031748   6.947518
    24  H    8.839382   9.856878   7.774258   8.723665   8.227758
    25  H    9.234927  10.103621   7.952077   9.504512   7.978843
    26  H    8.543091   9.340160   7.189687   8.975575   7.040371
    27  H    9.343491  10.251406   8.086729   9.534637   8.189309
                    6          7          8          9         10
     6  C    0.000000
     7  C    2.450193   0.000000
     8  F    4.159962   2.376572   0.000000
     9  H    2.310039   4.518521   5.504512   0.000000
    10  C    1.407055   1.388891   3.630186   3.706364   0.000000
    11  C    1.483805   3.825485   5.642749   2.136349   2.547670
    12  H    3.442870   1.090163   2.615519   5.587641   2.171468
    13  O    2.368132   4.813551   6.304637   1.423775   3.669955
    14  H    2.167429   2.124521   4.496519   4.417962   1.088975
    15  C    2.534242   4.393940   6.526678   3.517206   3.006204
    16  C    3.800504   5.772557   7.880208   4.192534   4.383797
    17  H    2.750195   4.009820   6.298789   4.296254   2.685420
    18  H    4.110400   6.328172   8.265788   3.880051   4.963311
    19  N    4.966864   6.692369   8.917712   5.520920   5.322292
    20  C    5.357911   6.619807   8.950151   6.405087   5.346047
    21  C    6.233292   8.098149  10.279337   6.411176   6.716963
    22  H    5.468345   6.651360   8.931800   6.551363   5.432816
    23  H    4.892887   5.865110   8.232102   6.255109   4.657952
    24  H    6.408809   7.604287   9.956860   7.408701   6.355283
    25  H    6.835761   8.669591  10.846329   7.004328   7.303675
    26  H    6.211077   8.285342  10.346425   6.002899   6.897835
    27  H    6.904144   8.625959  10.862799   7.209579   7.266208
                   11         12         13         14         15
    11  C    0.000000
    12  H    4.716314   0.000000
    13  O    1.289452   5.790138   0.000000
    14  H    2.787637   2.467976   4.047292   0.000000
    15  C    1.425773   5.061142   2.372869   2.695684   0.000000
    16  C    2.439301   6.423892   2.808025   4.013557   1.385609
    17  H    2.177735   4.485412   3.335936   2.045047   1.087558
    18  H    2.633108   7.089116   2.462574   4.781019   2.130375
    19  N    3.705798   7.201847   4.135811   4.736810   2.435309
    20  C    4.379333   6.929496   5.120788   4.543178   2.959705
    21  C    4.860681   8.639484   4.992117   6.174077   3.754331
    22  H    4.581146   6.954181   5.348800   4.677560   3.239428
    23  H    4.136664   6.075418   5.070189   3.745569   2.744883
    24  H    5.406846   7.845150   6.083054   5.496935   3.991156
    25  H    5.487919   9.197556   5.620035   6.755161   4.372030
    26  H    4.756332   8.932762   4.606427   6.502888   3.911146
    27  H    5.587450   9.082805   5.787431   6.625184   4.420730
                   16         17         18         19         20
    16  C    0.000000
    17  H    2.148063   0.000000
    18  H    1.094222   3.100157   0.000000
    19  N    1.334283   2.738877   2.051566   0.000000
    20  C    2.451415   2.685328   3.405524   1.459826   0.000000
    21  C    2.434911   4.185634   2.567372   1.456751   2.470991
    22  H    2.915548   2.865716   3.852643   2.121043   1.106096
    23  H    2.685201   2.180693   3.736576   2.115360   1.098670
    24  H    3.316306   3.731156   4.138083   2.094025   1.099896
    25  H    3.135277   4.714795   3.297589   2.112065   2.747515
    26  H    2.526961   4.583327   2.173406   2.098592   3.401543
    27  H    3.182121   4.730305   3.378945   2.103269   2.734672
                   21         22         23         24         25
    21  C    0.000000
    22  H    3.043229   0.000000
    23  H    3.327657   1.799971   0.000000
    24  H    2.510642   1.789512   1.783393   0.000000
    25  H    1.104710   2.959102   3.786023   2.674522   0.000000
    26  H    1.096219   3.944576   4.146810   3.573094   1.796662
    27  H    1.103033   3.513114   3.463995   2.374118   1.782761
                   26         27
    26  H    0.000000
    27  H    1.799752   0.000000
 Symmetry turned off by external request.
 Stoichiometry    C11H12FNO2
 Framework group  C1[X(C11H12FNO2)]
 Deg. of freedom    75
 Full point group                 C1      NOp   1
 Rotational constants (GHZ):      1.4400592      0.2488684      0.2133866
 Leave Link  202 at Fri Nov  3 00:26:18 2017, MaxMem=  3758096384 cpu:         0.1
 (Enter /share/apps/gaussian/g09_D01/g09/l301.exe)
 Standard basis: 6-311++G(d,p) (5D, 7F)
 Ernie: Thresh=  0.10000D-02 Tol=  0.10000D-05 Strict=F.
   414 basis functions,   648 primitive gaussians,   429 cartesian basis functions
    55 alpha electrons       55 beta electrons
       nuclear repulsion energy       934.7877380320 Hartrees.
 IExCor= 4639 DFT=T Ex+Corr=wB97XD ExCW=0 ScaHFX=  1.000000
 ScaDFX=  1.000000  1.000000  1.000000  1.000000 ScalE2=  1.000000  1.000000
 IRadAn=      0 IRanWt=     -1 IRanGd=            0 ICorTp=0 IEmpDi=121
  HFx wShort=  0.000000 wLong=  0.200000 cFull=  0.222036 cShort=  0.000000 cLong=  0.777964
  DFx wShort=  0.000000 wLong=  0.200000 cFull=  0.000000 cShort=  0.000000 cLong=  1.000000
 NAtoms=   27 NActive=   27 NUniq=   27 SFac= 1.00D+00 NAtFMM=   60 NAOKFM=F Big=F
 Integral buffers will be    131072 words long.
 Raffenetti 1 integral format.
 Two-electron integral symmetry is turned off.
 R6Disp:  Grimme-D2 Dispersion energy=       -0.0150363861 Hartrees.
 Nuclear repulsion after empirical dispersion term =      934.7727016459 Hartrees.
 Leave Link  301 at Fri Nov  3 00:26:19 2017, MaxMem=  3758096384 cpu:         0.1
 (Enter /share/apps/gaussian/g09_D01/g09/l302.exe)
 NPDir=0 NMtPBC=     1 NCelOv=     1 NCel=       1 NClECP=     1 NCelD=      1
         NCelK=      1 NCelE2=     1 NClLst=     1 CellRange=     0.0.
 One-electron integrals computed using PRISM.
 NBasis=   414 RedAO= T EigKep=  1.31D-06  NBF=   414
 NBsUse=   412 1.00D-06 EigRej=  7.56D-07 NBFU=   412
 Precomputing XC quadrature grid using
 IXCGrd= 4 IRadAn=           0 IRanWt=          -1 IRanGd=           0 AccXCQ= 0.00D+00.
 Generated NRdTot=       0 NPtTot=           0 NUsed=           0 NTot=          32
 NSgBfM=   425   425   425   425   425 MxSgAt=    27 MxSgA2=    27.
 Leave Link  302 at Fri Nov  3 00:26:19 2017, MaxMem=  3758096384 cpu:         1.6
 (Enter /share/apps/gaussian/g09_D01/g09/l308.exe)
 Leave Link  308 at Fri Nov  3 00:26:19 2017, MaxMem=  3758096384 cpu:         0.2
 (Enter /share/apps/gaussian/g09_D01/g09/l303.exe)
 DipDrv:  MaxL=1.
 Leave Link  303 at Fri Nov  3 00:26:19 2017, MaxMem=  3758096384 cpu:         0.2
 (Enter /share/apps/gaussian/g09_D01/g09/l401.exe)
 ExpMin= 3.60D-02 ExpMax= 1.14D+04 ExpMxC= 1.72D+03 IAcc=3 IRadAn=         5 AccDes= 0.00D+00
 Harris functional with IExCor= 4639 and IRadAn=       5 diagonalized for initial guess.
 HarFok:  IExCor= 4639 AccDes= 0.00D+00 IRadAn=         5 IDoV= 1 UseB2=F ITyADJ=14
 ICtDFT=  3500011 ScaDFX=  1.000000  1.000000  1.000000  1.000000
 FoFCou: FMM=F IPFlag=           0 FMFlag=      100000 FMFlg1=           0
         NFxFlg=           0 DoJE=T BraDBF=F KetDBF=T FulRan=T
         wScrn=  0.000000 ICntrl=     500 IOpCl=  0 I1Cent=   200000004 NGrid=           0
         NMat0=    1 NMatS0=      1 NMatT0=    0 NMatD0=    1 NMtDS0=    0 NMtDT0=    0
 Symmetry not used in FoFCou.
 Harris En= -701.389987695620    
 JPrj=0 DoOrth=F DoCkMO=F.
 Leave Link  401 at Fri Nov  3 00:26:25 2017, MaxMem=  3758096384 cpu:        25.2
 (Enter /share/apps/gaussian/g09_D01/g09/l502.exe)
 Closed shell SCF:
 Using DIIS extrapolation, IDIIS=  1040.
 Two-electron integral symmetry not used.
 IVT=      575875 IEndB=      575875 NGot=  3758096384 MDV=  3757721620
 LenX=  3757721620 LenY=  3757537138
 Requested convergence on RMS density matrix=1.00D-08 within 128 cycles.
 Requested convergence on MAX density matrix=1.00D-06.
 Requested convergence on             energy=1.00D-06.
 No special actions if energy rises.
 Fock matrices will be formed incrementally for  20 cycles.

 Cycle   1  Pass 1  IDiag  1:
 FoFJK:  IHMeth= 1 ICntrl=       0 DoSepK=T KAlg= 0 I1Cent=   0 FoldK=F
 IRaf=         1 NMat=   1 IRICut=       1 DoRegI=T DoRafI=F ISym2E= 0.
 FoFCou: FMM=F IPFlag=           0 FMFlag=      100000 FMFlg1=           0
         NFxFlg=           0 DoJE=T BraDBF=F KetDBF=F FulRan=T
         wScrn=  0.000000 ICntrl=     500 IOpCl=  0 I1Cent=           0 NGrid=           0
         NMat0=    1 NMatS0=      1 NMatT0=    0 NMatD0=    1 NMtDS0=    0 NMtDT0=    0
 Symmetry not used in FoFCou.
 E= -731.037811636672    
 DIIS: error= 1.16D-01 at cycle   1 NSaved=   1.
 NSaved= 1 IEnMin= 1 EnMin= -731.037811636672     IErMin= 1 ErrMin= 1.16D-01
 ErrMax= 1.16D-01  0.00D+00 EMaxC= 1.00D-01 BMatC= 1.75D+00 BMatP= 1.75D+00
 IDIUse=3 WtCom= 0.00D+00 WtEn= 1.00D+00
 Coeff-Com:  0.100D+01
 Coeff-En:   0.100D+01
 Coeff:      0.100D+01
 Gap=     0.312 Goal=   None    Shift=    0.000
 GapD=    0.312 DampG=1.000 DampE=0.250 DampFc=0.2500 IDamp=-1.
 Damping current iteration by 2.50D-01
 RMSDP=4.96D-02 MaxDP=5.43D+00              OVMax= 1.83D-01

 Cycle   2  Pass 1  IDiag  1:
 RMSU=  3.11D-03    CP:  9.06D-01
 E= -731.156833846555     Delta-E=       -0.119022209883 Rises=F Damp=T
 DIIS: error= 8.35D-02 at cycle   2 NSaved=   2.
 NSaved= 2 IEnMin= 2 EnMin= -731.156833846555     IErMin= 2 ErrMin= 8.35D-02
 ErrMax= 8.35D-02  0.00D+00 EMaxC= 1.00D-01 BMatC= 8.27D-01 BMatP= 1.75D+00
 IDIUse=3 WtCom= 1.65D-01 WtEn= 8.35D-01
 Coeff-Com: -0.172D+01 0.272D+01
 Coeff-En:   0.000D+00 0.100D+01
 Coeff:     -0.284D+00 0.128D+01
 Gap=     0.275 Goal=   None    Shift=    0.000
 RMSDP=3.30D-02 MaxDP=3.62D+00 DE=-1.19D-01 OVMax= 7.15D-02

 Cycle   3  Pass 1  IDiag  1:
 RMSU=  3.79D-03    CP:  6.55D-01  3.00D+00
 E= -731.357017658356     Delta-E=       -0.200183811800 Rises=F Damp=F
 DIIS: error= 1.31D-02 at cycle   3 NSaved=   3.
 NSaved= 3 IEnMin= 3 EnMin= -731.357017658356     IErMin= 3 ErrMin= 1.31D-02
 ErrMax= 1.31D-02  0.00D+00 EMaxC= 1.00D-01 BMatC= 5.07D-02 BMatP= 8.27D-01
 IDIUse=3 WtCom= 8.69D-01 WtEn= 1.31D-01
 Coeff-Com:  0.109D+01-0.141D+01 0.132D+01
 Coeff-En:   0.000D+00 0.000D+00 0.100D+01
 Coeff:      0.947D+00-0.123D+01 0.128D+01
 Gap=     0.285 Goal=   None    Shift=    0.000
 RMSDP=5.72D-03 MaxDP=6.81D-01 DE=-2.00D-01 OVMax= 2.89D-02

 Cycle   4  Pass 1  IDiag  1:
 RMSU=  4.29D-03    CP:  6.28D-01  2.84D+00  1.21D+00
 E= -731.384609974451     Delta-E=       -0.027592316095 Rises=F Damp=F
 DIIS: error= 3.68D-03 at cycle   4 NSaved=   4.
 NSaved= 4 IEnMin= 4 EnMin= -731.384609974451     IErMin= 4 ErrMin= 3.68D-03
 ErrMax= 3.68D-03  0.00D+00 EMaxC= 1.00D-01 BMatC= 4.86D-03 BMatP= 5.07D-02
 IDIUse=3 WtCom= 9.63D-01 WtEn= 3.68D-02
 Coeff-Com:  0.433D+00-0.564D+00 0.603D+00 0.527D+00
 Coeff-En:   0.000D+00 0.000D+00 0.000D+00 0.100D+01
 Coeff:      0.417D+00-0.543D+00 0.581D+00 0.545D+00
 Gap=     0.282 Goal=   None    Shift=    0.000
 RMSDP=1.72D-03 MaxDP=1.75D-01 DE=-2.76D-02 OVMax= 9.91D-03

 Cycle   5  Pass 1  IDiag  1:
 RMSU=  9.46D-04    CP:  6.36D-01  3.00D+00  1.28D+00  8.10D-01
 E= -731.387653727939     Delta-E=       -0.003043753488 Rises=F Damp=F
 DIIS: error= 8.04D-04 at cycle   5 NSaved=   5.
 NSaved= 5 IEnMin= 5 EnMin= -731.387653727939     IErMin= 5 ErrMin= 8.04D-04
 ErrMax= 8.04D-04  0.00D+00 EMaxC= 1.00D-01 BMatC= 2.73D-04 BMatP= 4.86D-03
 IDIUse=3 WtCom= 9.92D-01 WtEn= 8.04D-03
 Coeff-Com:  0.693D-02-0.855D-02 0.413D-01 0.212D+00 0.748D+00
 Coeff-En:   0.000D+00 0.000D+00 0.000D+00 0.000D+00 0.100D+01
 Coeff:      0.688D-02-0.849D-02 0.409D-01 0.210D+00 0.750D+00
 Gap=     0.282 Goal=   None    Shift=    0.000
 RMSDP=1.11D-03 MaxDP=1.34D-01 DE=-3.04D-03 OVMax= 4.24D-03

 Cycle   6  Pass 1  IDiag  1:
 RMSU=  3.71D-04    CP:  6.28D-01  3.00D+00  1.26D+00  8.91D-01  1.04D+00
 E= -731.387874719635     Delta-E=       -0.000220991696 Rises=F Damp=F
 DIIS: error= 3.36D-04 at cycle   6 NSaved=   6.
 NSaved= 6 IEnMin= 6 EnMin= -731.387874719635     IErMin= 6 ErrMin= 3.36D-04
 ErrMax= 3.36D-04  0.00D+00 EMaxC= 1.00D-01 BMatC= 2.67D-05 BMatP= 2.73D-04
 IDIUse=3 WtCom= 9.97D-01 WtEn= 3.36D-03
 Coeff-Com: -0.300D-01 0.394D-01-0.302D-01 0.457D-01 0.322D+00 0.654D+00
 Coeff-En:   0.000D+00 0.000D+00 0.000D+00 0.000D+00 0.000D+00 0.100D+01
 Coeff:     -0.299D-01 0.393D-01-0.301D-01 0.455D-01 0.321D+00 0.655D+00
 Gap=     0.283 Goal=   None    Shift=    0.000
 RMSDP=2.34D-04 MaxDP=2.43D-02 DE=-2.21D-04 OVMax= 2.76D-03

 Cycle   7  Pass 1  IDiag  1:
 RMSU=  9.18D-05    CP:  6.27D-01  3.00D+00  1.27D+00  9.08D-01  1.13D+00
                    CP:  1.20D+00
 E= -731.387904287849     Delta-E=       -0.000029568214 Rises=F Damp=F
 DIIS: error= 9.99D-05 at cycle   7 NSaved=   7.
 NSaved= 7 IEnMin= 7 EnMin= -731.387904287849     IErMin= 7 ErrMin= 9.99D-05
 ErrMax= 9.99D-05  0.00D+00 EMaxC= 1.00D-01 BMatC= 4.30D-06 BMatP= 2.67D-05
 IDIUse=1 WtCom= 1.00D+00 WtEn= 0.00D+00
 Coeff-Com: -0.109D-01 0.141D-01-0.199D-01-0.205D-01 0.209D-02 0.255D+00
 Coeff-Com:  0.780D+00
 Coeff:     -0.109D-01 0.141D-01-0.199D-01-0.205D-01 0.209D-02 0.255D+00
 Coeff:      0.780D+00
 Gap=     0.283 Goal=   None    Shift=    0.000
 RMSDP=1.32D-04 MaxDP=1.36D-02 DE=-2.96D-05 OVMax= 9.40D-04

 Cycle   8  Pass 1  IDiag  1:
 RMSU=  3.37D-05    CP:  6.26D-01  3.00D+00  1.27D+00  9.24D-01  1.18D+00
                    CP:  1.37D+00  1.18D+00
 E= -731.387910686408     Delta-E=       -0.000006398559 Rises=F Damp=F
 DIIS: error= 6.49D-05 at cycle   8 NSaved=   8.
 NSaved= 8 IEnMin= 8 EnMin= -731.387910686408     IErMin= 8 ErrMin= 6.49D-05
 ErrMax= 6.49D-05  0.00D+00 EMaxC= 1.00D-01 BMatC= 8.49D-07 BMatP= 4.30D-06
 IDIUse=1 WtCom= 1.00D+00 WtEn= 0.00D+00
 Coeff-Com:  0.305D-02-0.422D-02-0.257D-02-0.220D-01-0.727D-01-0.830D-02
 Coeff-Com:  0.365D+00 0.741D+00
 Coeff:      0.305D-02-0.422D-02-0.257D-02-0.220D-01-0.727D-01-0.830D-02
 Coeff:      0.365D+00 0.741D+00
 Gap=     0.283 Goal=   None    Shift=    0.000
 RMSDP=4.07D-05 MaxDP=3.32D-03 DE=-6.40D-06 OVMax= 7.86D-04

 Cycle   9  Pass 1  IDiag  1:
 RMSU=  2.13D-05    CP:  6.26D-01  3.00D+00  1.27D+00  9.27D-01  1.20D+00
                    CP:  1.45D+00  1.17D+00  1.16D+00
 E= -731.387912223200     Delta-E=       -0.000001536792 Rises=F Damp=F
 DIIS: error= 1.37D-05 at cycle   9 NSaved=   9.
 NSaved= 9 IEnMin= 9 EnMin= -731.387912223200     IErMin= 9 ErrMin= 1.37D-05
 ErrMax= 1.37D-05  0.00D+00 EMaxC= 1.00D-01 BMatC= 8.54D-08 BMatP= 8.49D-07
 IDIUse=1 WtCom= 1.00D+00 WtEn= 0.00D+00
 Coeff-Com:  0.234D-02-0.309D-02 0.213D-02-0.291D-02-0.179D-01-0.342D-01
 Coeff-Com: -0.433D-01 0.214D+00 0.883D+00
 Coeff:      0.234D-02-0.309D-02 0.213D-02-0.291D-02-0.179D-01-0.342D-01
 Coeff:     -0.433D-01 0.214D+00 0.883D+00
 Gap=     0.283 Goal=   None    Shift=    0.000
 RMSDP=1.72D-05 MaxDP=1.66D-03 DE=-1.54D-06 OVMax= 2.59D-04

 Cycle  10  Pass 1  IDiag  1:
 RMSU=  4.53D-06    CP:  6.27D-01  3.00D+00  1.27D+00  9.27D-01  1.20D+00
                    CP:  1.46D+00  1.14D+00  1.33D+00  1.31D+00
 E= -731.387912396118     Delta-E=       -0.000000172918 Rises=F Damp=F
 DIIS: error= 7.58D-06 at cycle  10 NSaved=  10.
 NSaved=10 IEnMin=10 EnMin= -731.387912396118     IErMin=10 ErrMin= 7.58D-06
 ErrMax= 7.58D-06  0.00D+00 EMaxC= 1.00D-01 BMatC= 1.21D-08 BMatP= 8.54D-08
 IDIUse=1 WtCom= 1.00D+00 WtEn= 0.00D+00
 Coeff-Com:  0.269D-03-0.314D-03 0.128D-02 0.300D-02 0.731D-02-0.753D-02
 Coeff-Com: -0.841D-01-0.308D-01 0.309D+00 0.802D+00
 Coeff:      0.269D-03-0.314D-03 0.128D-02 0.300D-02 0.731D-02-0.753D-02
 Coeff:     -0.841D-01-0.308D-01 0.309D+00 0.802D+00
 Gap=     0.283 Goal=   None    Shift=    0.000
 RMSDP=1.01D-05 MaxDP=1.05D-03 DE=-1.73D-07 OVMax= 8.76D-05

 Cycle  11  Pass 1  IDiag  1:
 RMSU=  2.38D-06    CP:  6.27D-01  3.00D+00  1.27D+00  9.26D-01  1.20D+00
                    CP:  1.46D+00  1.13D+00  1.40D+00  1.38D+00  1.35D+00
 E= -731.387912419300     Delta-E=       -0.000000023182 Rises=F Damp=F
 DIIS: error= 2.01D-06 at cycle  11 NSaved=  11.
 NSaved=11 IEnMin=11 EnMin= -731.387912419300     IErMin=11 ErrMin= 2.01D-06
 ErrMax= 2.01D-06  0.00D+00 EMaxC= 1.00D-01 BMatC= 8.83D-10 BMatP= 1.21D-08
 IDIUse=1 WtCom= 1.00D+00 WtEn= 0.00D+00
 Coeff-Com: -0.884D-04 0.129D-03 0.185D-03 0.937D-03 0.300D-02 0.159D-02
 Coeff-Com: -0.179D-01-0.221D-01-0.756D-02 0.176D+00 0.866D+00
 Coeff:     -0.884D-04 0.129D-03 0.185D-03 0.937D-03 0.300D-02 0.159D-02
 Coeff:     -0.179D-01-0.221D-01-0.756D-02 0.176D+00 0.866D+00
 Gap=     0.283 Goal=   None    Shift=    0.000
 RMSDP=1.78D-06 MaxDP=1.31D-04 DE=-2.32D-08 OVMax= 3.39D-05

 Cycle  12  Pass 1  IDiag  1:
 RMSU=  7.89D-07    CP:  6.27D-01  3.00D+00  1.27D+00  9.26D-01  1.20D+00
                    CP:  1.46D+00  1.12D+00  1.41D+00  1.40D+00  1.51D+00
                    CP:  1.25D+00
 E= -731.387912421571     Delta-E=       -0.000000002271 Rises=F Damp=F
 DIIS: error= 1.20D-06 at cycle  12 NSaved=  12.
 NSaved=12 IEnMin=12 EnMin= -731.387912421571     IErMin=12 ErrMin= 1.20D-06
 ErrMax= 1.20D-06  0.00D+00 EMaxC= 1.00D-01 BMatC= 1.66D-10 BMatP= 8.83D-10
 IDIUse=1 WtCom= 1.00D+00 WtEn= 0.00D+00
 Coeff-Com: -0.314D-04 0.391D-04-0.843D-04-0.121D-03-0.173D-03 0.144D-02
 Coeff-Com:  0.524D-02-0.239D-02-0.404D-01-0.664D-01 0.263D+00 0.840D+00
 Coeff:     -0.314D-04 0.391D-04-0.843D-04-0.121D-03-0.173D-03 0.144D-02
 Coeff:      0.524D-02-0.239D-02-0.404D-01-0.664D-01 0.263D+00 0.840D+00
 Gap=     0.283 Goal=   None    Shift=    0.000
 RMSDP=7.01D-07 MaxDP=6.14D-05 DE=-2.27D-09 OVMax= 1.56D-05

 Cycle  13  Pass 1  IDiag  1:
 RMSU=  2.38D-07    CP:  6.27D-01  3.00D+00  1.27D+00  9.26D-01  1.20D+00
                    CP:  1.46D+00  1.12D+00  1.41D+00  1.40D+00  1.58D+00
                    CP:  1.35D+00  1.24D+00
 E= -731.387912421979     Delta-E=       -0.000000000408 Rises=F Damp=F
 DIIS: error= 4.80D-07 at cycle  13 NSaved=  13.
 NSaved=13 IEnMin=13 EnMin= -731.387912421979     IErMin=13 ErrMin= 4.80D-07
 ErrMax= 4.80D-07  0.00D+00 EMaxC= 1.00D-01 BMatC= 3.07D-11 BMatP= 1.66D-10
 IDIUse=1 WtCom= 1.00D+00 WtEn= 0.00D+00
 Coeff-Com: -0.274D-05 0.763D-06-0.654D-04-0.191D-03-0.541D-03 0.350D-03
 Coeff-Com:  0.485D-02 0.194D-02-0.143D-01-0.547D-01-0.249D-01 0.311D+00
 Coeff-Com:  0.777D+00
 Coeff:     -0.274D-05 0.763D-06-0.654D-04-0.191D-03-0.541D-03 0.350D-03
 Coeff:      0.485D-02 0.194D-02-0.143D-01-0.547D-01-0.249D-01 0.311D+00
 Coeff:      0.777D+00
 Gap=     0.283 Goal=   None    Shift=    0.000
 RMSDP=3.72D-07 MaxDP=2.66D-05 DE=-4.08D-10 OVMax= 6.81D-06

 Cycle  14  Pass 1  IDiag  1:
 RMSU=  1.19D-07    CP:  6.27D-01  3.00D+00  1.27D+00  9.26D-01  1.20D+00
                    CP:  1.46D+00  1.11D+00  1.41D+00  1.41D+00  1.60D+00
                    CP:  1.40D+00  1.42D+00  1.48D+00
 E= -731.387912422073     Delta-E=       -0.000000000093 Rises=F Damp=F
 DIIS: error= 2.32D-07 at cycle  14 NSaved=  14.
 NSaved=14 IEnMin=14 EnMin= -731.387912422073     IErMin=14 ErrMin= 2.32D-07
 ErrMax= 2.32D-07  0.00D+00 EMaxC= 1.00D-01 BMatC= 5.86D-12 BMatP= 3.07D-11
 IDIUse=1 WtCom= 1.00D+00 WtEn= 0.00D+00
 Coeff-Com: -0.143D-06-0.210D-06-0.101D-04-0.337D-04-0.124D-03-0.921D-04
 Coeff-Com:  0.666D-03 0.795D-03 0.373D-02-0.597D-02-0.528D-01-0.273D-01
 Coeff-Com:  0.268D+00 0.813D+00
 Coeff:     -0.143D-06-0.210D-06-0.101D-04-0.337D-04-0.124D-03-0.921D-04
 Coeff:      0.666D-03 0.795D-03 0.373D-02-0.597D-02-0.528D-01-0.273D-01
 Coeff:      0.268D+00 0.813D+00
 Gap=     0.283 Goal=   None    Shift=    0.000
 RMSDP=1.97D-07 MaxDP=2.25D-05 DE=-9.32D-11 OVMax= 2.67D-06

 Cycle  15  Pass 1  IDiag  1:
 RMSU=  5.18D-08    CP:  6.27D-01  3.00D+00  1.27D+00  9.26D-01  1.20D+00
                    CP:  1.46D+00  1.12D+00  1.41D+00  1.41D+00  1.60D+00
                    CP:  1.40D+00  1.45D+00  1.68D+00  1.08D+00
 E= -731.387912422100     Delta-E=       -0.000000000028 Rises=F Damp=F
 DIIS: error= 9.69D-08 at cycle  15 NSaved=  15.
 NSaved=15 IEnMin=15 EnMin= -731.387912422100     IErMin=15 ErrMin= 9.69D-08
 ErrMax= 9.69D-08  0.00D+00 EMaxC= 1.00D-01 BMatC= 1.12D-12 BMatP= 5.86D-12
 IDIUse=1 WtCom= 1.00D+00 WtEn= 0.00D+00
 Coeff-Com: -0.221D-05 0.339D-05 0.870D-05 0.343D-04 0.874D-04-0.935D-04
 Coeff-Com: -0.832D-03-0.554D-03 0.401D-02 0.994D-02-0.133D-01-0.770D-01
 Coeff-Com: -0.102D+00 0.256D+00 0.924D+00
 Coeff:     -0.221D-05 0.339D-05 0.870D-05 0.343D-04 0.874D-04-0.935D-04
 Coeff:     -0.832D-03-0.554D-03 0.401D-02 0.994D-02-0.133D-01-0.770D-01
 Coeff:     -0.102D+00 0.256D+00 0.924D+00
 Gap=     0.283 Goal=   None    Shift=    0.000
 RMSDP=1.30D-07 MaxDP=1.37D-05 DE=-2.75D-11 OVMax= 1.85D-06

 Cycle  16  Pass 1  IDiag  1:
 RMSU=  2.06D-08    CP:  6.27D-01  3.00D+00  1.27D+00  9.26D-01  1.20D+00
                    CP:  1.46D+00  1.12D+00  1.41D+00  1.41D+00  1.60D+00
                    CP:  1.39D+00  1.48D+00  1.80D+00  1.14D+00  1.43D+00
 E= -731.387912422127     Delta-E=       -0.000000000027 Rises=F Damp=F
 DIIS: error= 2.39D-08 at cycle  16 NSaved=  16.
 NSaved=16 IEnMin=16 EnMin= -731.387912422127     IErMin=16 ErrMin= 2.39D-08
 ErrMax= 2.39D-08  0.00D+00 EMaxC= 1.00D-01 BMatC= 1.64D-13 BMatP= 1.12D-12
 IDIUse=1 WtCom= 1.00D+00 WtEn= 0.00D+00
 Coeff-Com: -0.189D-06 0.410D-06 0.387D-05 0.134D-04 0.393D-04-0.919D-05
 Coeff-Com: -0.272D-03-0.303D-03 0.614D-03 0.369D-02 0.386D-02-0.116D-01
 Coeff-Com: -0.672D-01-0.645D-01 0.238D+00 0.897D+00
 Coeff:     -0.189D-06 0.410D-06 0.387D-05 0.134D-04 0.393D-04-0.919D-05
 Coeff:     -0.272D-03-0.303D-03 0.614D-03 0.369D-02 0.386D-02-0.116D-01
 Coeff:     -0.672D-01-0.645D-01 0.238D+00 0.897D+00
 Gap=     0.283 Goal=   None    Shift=    0.000
 RMSDP=2.94D-08 MaxDP=3.22D-06 DE=-2.68D-11 OVMax= 5.36D-07

 Cycle  17  Pass 1  IDiag  1:
 RMSU=  5.80D-09    CP:  6.27D-01  3.00D+00  1.27D+00  9.26D-01  1.20D+00
                    CP:  1.46D+00  1.12D+00  1.41D+00  1.41D+00  1.60D+00
                    CP:  1.39D+00  1.48D+00  1.81D+00  1.15D+00  1.67D+00
                    CP:  1.30D+00
 E= -731.387912422128     Delta-E=       -0.000000000001 Rises=F Damp=F
 DIIS: error= 1.30D-08 at cycle  17 NSaved=  17.
 NSaved=17 IEnMin=17 EnMin= -731.387912422128     IErMin=17 ErrMin= 1.30D-08
 ErrMax= 1.30D-08  0.00D+00 EMaxC= 1.00D-01 BMatC= 3.54D-14 BMatP= 1.64D-13
 IDIUse=1 WtCom= 1.00D+00 WtEn= 0.00D+00
 Coeff-Com:  0.252D-06-0.359D-06-0.329D-06-0.190D-05-0.244D-05 0.145D-04
 Coeff-Com:  0.699D-04-0.436D-04-0.645D-03-0.460D-03 0.417D-02 0.119D-01
 Coeff-Com: -0.706D-02-0.814D-01-0.867D-01 0.375D+00 0.786D+00
 Coeff:      0.252D-06-0.359D-06-0.329D-06-0.190D-05-0.244D-05 0.145D-04
 Coeff:      0.699D-04-0.436D-04-0.645D-03-0.460D-03 0.417D-02 0.119D-01
 Coeff:     -0.706D-02-0.814D-01-0.867D-01 0.375D+00 0.786D+00
 Gap=     0.283 Goal=   None    Shift=    0.000
 RMSDP=8.13D-09 MaxDP=4.86D-07 DE=-1.14D-12 OVMax= 1.76D-07

 SCF Done:  E(RwB97XD) =  -731.387912422     A.U. after   17 cycles
            NFock= 17  Conv=0.81D-08     -V/T= 2.0044
 KE= 7.281716610031D+02 PE=-3.580041369596D+03 EE= 1.185709094525D+03
 Leave Link  502 at Fri Nov  3 00:31:04 2017, MaxMem=  3758096384 cpu:      1112.9
 (Enter /share/apps/gaussian/g09_D01/g09/l801.exe)
 DoSCS=F DFT=T ScalE2(SS,OS)=  1.000000  1.000000
 ExpMin= 3.60D-02 ExpMax= 1.14D+04 ExpMxC= 1.72D+03 IAcc=3 IRadAn=         5 AccDes= 0.00D+00
 HarFok:  IExCor=  205 AccDes= 0.00D+00 IRadAn=         5 IDoV=-2 UseB2=F ITyADJ=14
 ICtDFT= 12500011 ScaDFX=  1.000000  1.000000  1.000000  1.000000
 Largest valence mixing into a core orbital is  5.73D-05
 Largest core mixing into a valence orbital is  1.59D-05
 Range of M.O.s used for correlation:    16   412
 NBasis=   414 NAE=    55 NBE=    55 NFC=    15 NFV=     0
 NROrb=    397 NOA=    40 NOB=    40 NVA=   357 NVB=   357

 **** Warning!!: The largest alpha MO coefficient is  0.13974744D+03

 Leave Link  801 at Fri Nov  3 00:31:04 2017, MaxMem=  3758096384 cpu:         1.0
 (Enter /share/apps/gaussian/g09_D01/g09/l914.exe)
 RHF ground state
 MDV=  3758096384 DFT=T DoStab=F Mixed=T DoRPA=T DoScal=F NonHer=T
 Would need an additional         18445000000 words for in-memory AO integral storage.
 Making orbital integer symmetry assigments:
    16 initial guesses have been made.
 Convergence on wavefunction:    0.001000000000000
 Davidson Disk Diagonalization:  ConvIn= 1.00D-03 SkipCon=T Conv= 1.00D-03.
 Max sub-space:   200 roots to seek:    16 dimension of matrix:        28560
 Iteration     1 Dimension    16 NMult     0 NNew     16
 CISAX will form    16 AO SS matrices at one time.
 NMat=    16 NSing=    16 JSym2X= 0.
 FoFJK:  IHMeth= 1 ICntrl=       0 DoSepK=T KAlg= 0 I1Cent=   0 FoldK=F
 IRaf=         1 NMat=  32 IRICut=       1 DoRegI=T DoRafI=F ISym2E= 0.
 FoFCou: FMM=F IPFlag=           0 FMFlag=      100000 FMFlg1=           0
         NFxFlg=           0 DoJE=F BraDBF=F KetDBF=F FulRan=T
         wScrn=  0.000000 ICntrl=     500 IOpCl=  0 I1Cent=           0 NGrid=           0
         NMat0=   16 NMatS0=     16 NMatT0=    0 NMatD0=   16 NMtDS0=    0 NMtDT0=    0
 Symmetry not used in FoFCou.
 New state      2 was old state      7
 New state      3 was old state      2
 New state      4 was old state      3
 Excitation Energies [eV] at current iteration:
 Root      1 :     4.508811379992956
 Root      2 :     4.574416351163279
 Root      3 :     5.321610204037014
 Root      4 :     5.847657524010692
 Root      5 :     5.926366118087477
 Root      6 :     6.346890594721502
 Root      7 :     6.597717288575214
 Root      8 :     6.623802978042736
 Root      9 :     6.862856113418662
 Root     10 :     6.921825571144714
 Root     11 :     7.077709671101859
 Root     12 :     7.108248645106338
 Root     13 :     7.430969804483339
 Root     14 :     7.537129189238435
 Root     15 :     7.782819671974712
 Root     16 :     7.911696581931994
 Iteration     2 Dimension    24 NMult    16 NNew      8
 CISAX will form     8 AO SS matrices at one time.
 NMat=     8 NSing=     8 JSym2X= 0.
 Root      1 not converged, maximum delta is    0.356196911018854
 Root      2 not converged, maximum delta is    0.325254777959594
 Root      3 not converged, maximum delta is    0.112394747705710
 Root      4 not converged, maximum delta is    0.353060116214871
 Excitation Energies [eV] at current iteration:
 Root      1 :     4.026168390220483   Change is   -0.482642989772473
 Root      2 :     4.271482186697871   Change is   -0.302934164465408
 Root      3 :     4.619703247709790   Change is   -0.701906956327224
 Root      4 :     5.521992110955608   Change is   -0.325665413055084
 Iteration     3 Dimension    32 NMult    24 NNew      8
 CISAX will form     8 AO SS matrices at one time.
 NMat=     8 NSing=     8 JSym2X= 0.
 Root      1 not converged, maximum delta is    0.021282577571093
 Root      2 not converged, maximum delta is    0.009635411181764
 Root      3 not converged, maximum delta is    0.029984889099890
 Root      4 not converged, maximum delta is    0.273129385330334
 Excitation Energies [eV] at current iteration:
 Root      1 :     3.982219260955166   Change is   -0.043949129265318
 Root      2 :     4.254701573655680   Change is   -0.016780613042191
 Root      3 :     4.561658618700827   Change is   -0.058044629008963
 Root      4 :     5.291477691236913   Change is   -0.230514419718696
 Iteration     4 Dimension    40 NMult    32 NNew      8
 CISAX will form     8 AO SS matrices at one time.
 NMat=     8 NSing=     8 JSym2X= 0.
 Root      1 not converged, maximum delta is    0.008458370174857
 Root      2 not converged, maximum delta is    0.003940560628936
 Root      3 not converged, maximum delta is    0.010410174758574
 Root      4 not converged, maximum delta is    0.058346836505254
 Excitation Energies [eV] at current iteration:
 Root      1 :     3.974637237730936   Change is   -0.007582023224230
 Root      2 :     4.253042677250576   Change is   -0.001658896405104
 Root      3 :     4.548919704257357   Change is   -0.012738914443469
 Root      4 :     5.206426501977631   Change is   -0.085051189259282
 Iteration     5 Dimension    48 NMult    40 NNew      8
 CISAX will form     8 AO SS matrices at one time.
 NMat=     8 NSing=     8 JSym2X= 0.
 Root      1 not converged, maximum delta is    0.002667694020444
 Root      2 not converged, maximum delta is    0.001350021359978
 Root      3 not converged, maximum delta is    0.003507022823774
 Root      4 not converged, maximum delta is    0.017707434919525
 Excitation Energies [eV] at current iteration:
 Root      1 :     3.973706394219598   Change is   -0.000930843511338
 Root      2 :     4.252901035510771   Change is   -0.000141641739805
 Root      3 :     4.547538086147464   Change is   -0.001381618109894
 Root      4 :     5.195597370910683   Change is   -0.010829131066949
 Iteration     6 Dimension    56 NMult    48 NNew      8
 CISAX will form     8 AO SS matrices at one time.
 NMat=     8 NSing=     8 JSym2X= 0.
 Root      1 not converged, maximum delta is    0.001006538618716
 Root      2 has converged.
 Root      3 not converged, maximum delta is    0.001086124146262
 Root      4 not converged, maximum delta is    0.006606782103509
 Excitation Energies [eV] at current iteration:
 Root      1 :     3.973605619541497   Change is   -0.000100774678101
 Root      2 :     4.252883457979364   Change is   -0.000017577531406
 Root      3 :     4.547395238201260   Change is   -0.000142847946203
 Root      4 :     5.193939036841605   Change is   -0.001658334069078
 Iteration     7 Dimension    62 NMult    56 NNew      6
 CISAX will form     6 AO SS matrices at one time.
 NMat=     6 NSing=     6 JSym2X= 0.
 Root      1 has converged.
 Root      2 has converged.
 Root      3 has converged.
 Root      4 not converged, maximum delta is    0.001766915063589
 Excitation Energies [eV] at current iteration:
 Root      1 :     3.973597780057488   Change is   -0.000007839484009
 Root      2 :     4.252882942515778   Change is   -0.000000515463587
 Root      3 :     4.547379725527969   Change is   -0.000015512673291
 Root      4 :     5.193745901681602   Change is   -0.000193135160002
 Iteration     8 Dimension    64 NMult    62 NNew      2
 CISAX will form     2 AO SS matrices at one time.
 NMat=     2 NSing=     2 JSym2X= 0.
 Root      1 has converged.
 Root      2 has converged.
 Root      3 has converged.
 Root      4 has converged.
 Excitation Energies [eV] at current iteration:
 Root      1 :     3.973597761355476   Change is   -0.000000018702012
 Root      2 :     4.252882936018268   Change is   -0.000000006497510
 Root      3 :     4.547379624926365   Change is   -0.000000100601603
 Root      4 :     5.193730811414937   Change is   -0.000015090266665
 Convergence achieved on expansion vectors.
 ***********************************************************************
 Excited states from <AA,BB:AA,BB> singles matrix:
 ***********************************************************************
 
 1PDM for each excited state written to RWF  633
 Ground to excited state transition densities written to RWF  633
 Ground to excited state transition electric dipole moments (Au):
       state          X           Y           Z        Dip. S.      Osc.
         1         0.8984     -0.2757      2.2338      5.8731      0.5718
         2        -0.0591     -0.0058     -0.2309      0.0568      0.0059
         3        -0.4143      0.1593     -1.2713      1.8131      0.2020
         4        -0.0407     -0.4271     -0.2312      0.2375      0.0302
 Ground to excited state transition velocity dipole moments (Au):
       state          X           Y           Z        Dip. S.      Osc.
         1        -0.1304      0.0421     -0.3234      0.1234      0.5632
         2         0.0081      0.0005      0.0351      0.0013      0.0055
         3         0.0675     -0.0244      0.2082      0.0485      0.1935
         4         0.0045      0.0792      0.0352      0.0075      0.0263
 Ground to excited state transition magnetic dipole moments (Au):
       state          X           Y           Z
         1         3.3677      2.4598     -1.0810
         2        -0.2258     -0.7123      0.0275
         3        -1.0488     -1.3955      0.0786
         4        -0.3587     -0.2057      0.6493
 Ground to excited state transition velocity quadrupole moments (Au):
       state          XX          YY          ZZ          XY          XZ          YZ
         1        -2.2499     -0.6519     -2.3713      1.5958     -3.2125      3.4317
         2         0.1353     -0.0270      0.1921     -0.0983      0.2932     -0.3384
         3         1.4345      0.3087      2.9089     -0.9791      2.6165     -2.5793
         4         0.0198     -1.4883     -0.4120      0.6321      0.0874     -0.0978
 <0|del|b> * <b|rxdel|0> + <0|del|b> * <b|delr+rdel|0>
 Rotatory Strengths (R) in cgs (10**-40 erg-esu-cm/Gauss)
       state          XX          YY          ZZ    R(velocity)    E-M Angle
         1       174.6970    -50.5763    -56.4638     22.5523       89.47
         2        -6.6869     -0.3522      1.6170     -1.8073       92.55
         3      -189.3867    -52.0030    155.4247    -28.6550       93.03
         4        40.4923     -2.6672    -19.5271      6.0993       85.76
 1/2[<0|r|b>*<b|rxdel|0> + (<0|rxdel|b>*<b|r|0>)*]
 Rotatory Strengths (R) in cgs (10**-40 erg-esu-cm/Gauss)
       state          XX          YY          ZZ     R(length)
         1     -2139.5558    479.4943   1707.7077     15.8821
         2        -9.4313     -2.9328      4.4847     -2.6265
         3      -307.2490    157.1890     70.7037    -26.4521
         4       -10.3350    -62.1188    106.1661     11.2374
  1/2[<0|del|b>*<b|r|0> + (<0|r|b>*<b|del|0>)*] (Au)
       state          X           Y           Z        Dip. S.   Osc.(frdel)
         1        -0.1171     -0.0116     -0.7224      0.8512      0.5674
         2        -0.0005      0.0000     -0.0081      0.0086      0.0057
         3        -0.0280     -0.0039     -0.2647      0.2965      0.1977
         4        -0.0002     -0.0338     -0.0081      0.0422      0.0281

 Excitation energies and oscillator strengths:
 
 Excited state symmetry could not be determined.
 Excited State   1:      Singlet-?Sym    3.9736 eV  312.02 nm  f=0.5718  <S**2>=0.000
      55 -> 56         0.67975
 This state for optimization and/or second-order correction.
 Total Energy, E(TD-HF/TD-KS) =  -731.241885385    
 Copying the excited state density for this state as the 1-particle RhoCI density.
 
 Excited state symmetry could not be determined.
 Excited State   2:      Singlet-?Sym    4.2529 eV  291.53 nm  f=0.0059  <S**2>=0.000
      52 -> 56         0.67483
      53 -> 56         0.10835
 
 Excited state symmetry could not be determined.
 Excited State   3:      Singlet-?Sym    4.5474 eV  272.65 nm  f=0.2020  <S**2>=0.000
      54 -> 56         0.67083
 
 Excited state symmetry could not be determined.
 Excited State   4:      Singlet-?Sym    5.1937 eV  238.72 nm  f=0.0302  <S**2>=0.000
      53 -> 56         0.55454
      54 -> 59        -0.11358
      54 -> 60         0.10784
      54 -> 61        -0.11158
      55 -> 59        -0.15255
      55 -> 60         0.15111
      55 -> 61        -0.18328
      55 -> 64        -0.10811
 SavETr:  write IOETrn=   770 NScale= 10 NData=  16 NLR=1 NState=    4 LETran=      82.
 Leave Link  914 at Fri Nov  3 00:43:08 2017, MaxMem=  3758096384 cpu:      2897.1
 (Enter /share/apps/gaussian/g09_D01/g09/l601.exe)
 Copying SCF densities to generalized density rwf, IOpCl= 0 IROHF=0.

 **********************************************************************

            Population analysis using the SCF density.

 **********************************************************************

 Alpha  occ. eigenvalues --  -24.81115 -19.24247 -19.23108 -14.50761 -10.38371
 Alpha  occ. eigenvalues --  -10.38142 -10.36524 -10.36156 -10.35279 -10.35176
 Alpha  occ. eigenvalues --  -10.31050 -10.29924 -10.29185 -10.28718 -10.28698
 Alpha  occ. eigenvalues --   -1.31680  -1.15143  -1.11135  -1.10035  -0.96460
 Alpha  occ. eigenvalues --   -0.90406  -0.86929  -0.86042  -0.84763  -0.81338
 Alpha  occ. eigenvalues --   -0.74095  -0.71446  -0.69848  -0.66115  -0.63702
 Alpha  occ. eigenvalues --   -0.63039  -0.60618  -0.59581  -0.59235  -0.57768
 Alpha  occ. eigenvalues --   -0.55172  -0.54720  -0.53119  -0.52671  -0.52443
 Alpha  occ. eigenvalues --   -0.52310  -0.51067  -0.50488  -0.50212  -0.49213
 Alpha  occ. eigenvalues --   -0.47426  -0.46681  -0.45628  -0.43075  -0.42753
 Alpha  occ. eigenvalues --   -0.41749  -0.34406  -0.33522  -0.31100  -0.29093
 Alpha virt. eigenvalues --   -0.00801   0.02172   0.03808   0.04956   0.05061
 Alpha virt. eigenvalues --    0.05333   0.06191   0.06654   0.07375   0.07478
 Alpha virt. eigenvalues --    0.07700   0.08064   0.09166   0.10280   0.10663
 Alpha virt. eigenvalues --    0.10892   0.12271   0.12581   0.12715   0.12994
 Alpha virt. eigenvalues --    0.13430   0.14132   0.14510   0.15137   0.15779
 Alpha virt. eigenvalues --    0.16248   0.16330   0.16575   0.16834   0.17158
 Alpha virt. eigenvalues --    0.17834   0.18070   0.18260   0.18606   0.18901
 Alpha virt. eigenvalues --    0.19337   0.19527   0.20333   0.20625   0.20884
 Alpha virt. eigenvalues --    0.21407   0.21819   0.21996   0.22533   0.23080
 Alpha virt. eigenvalues --    0.23601   0.23835   0.24052   0.24979   0.25209
 Alpha virt. eigenvalues --    0.25593   0.26000   0.26691   0.26908   0.27410
 Alpha virt. eigenvalues --    0.27718   0.28174   0.28387   0.29069   0.29392
 Alpha virt. eigenvalues --    0.30017   0.30251   0.30985   0.31636   0.32089
 Alpha virt. eigenvalues --    0.32845   0.33273   0.34294   0.34576   0.34953
 Alpha virt. eigenvalues --    0.35277   0.35649   0.36371   0.37512   0.37739
 Alpha virt. eigenvalues --    0.37914   0.38277   0.38770   0.39269   0.40064
 Alpha virt. eigenvalues --    0.40571   0.41341   0.42440   0.42684   0.43248
 Alpha virt. eigenvalues --    0.43430   0.44374   0.44687   0.45416   0.46302
 Alpha virt. eigenvalues --    0.47211   0.48814   0.49070   0.49507   0.50070
 Alpha virt. eigenvalues --    0.50727   0.51493   0.52666   0.53761   0.54355
 Alpha virt. eigenvalues --    0.56782   0.56986   0.58911   0.60031   0.61815
 Alpha virt. eigenvalues --    0.62533   0.62958   0.64066   0.64896   0.65148
 Alpha virt. eigenvalues --    0.65973   0.66739   0.67264   0.67723   0.68764
 Alpha virt. eigenvalues --    0.69125   0.69671   0.70412   0.70830   0.70987
 Alpha virt. eigenvalues --    0.72407   0.73337   0.74009   0.74715   0.75560
 Alpha virt. eigenvalues --    0.76010   0.77331   0.77549   0.79501   0.79777
 Alpha virt. eigenvalues --    0.80114   0.80520   0.81042   0.82776   0.84483
 Alpha virt. eigenvalues --    0.85121   0.87683   0.88608   0.90833   0.92440
 Alpha virt. eigenvalues --    0.93130   0.93884   0.94669   0.96056   0.96588
 Alpha virt. eigenvalues --    0.97091   0.98129   1.01196   1.02030   1.02863
 Alpha virt. eigenvalues --    1.03338   1.04847   1.06139   1.06574   1.06989
 Alpha virt. eigenvalues --    1.09837   1.10694   1.10918   1.12259   1.13585
 Alpha virt. eigenvalues --    1.14762   1.16836   1.17272   1.17539   1.18653
 Alpha virt. eigenvalues --    1.20614   1.21387   1.23931   1.26100   1.27787
 Alpha virt. eigenvalues --    1.31369   1.31857   1.34255   1.34529   1.35903
 Alpha virt. eigenvalues --    1.37083   1.39284   1.39973   1.44463   1.47565
 Alpha virt. eigenvalues --    1.49275   1.50113   1.52428   1.52887   1.54015
 Alpha virt. eigenvalues --    1.55423   1.56676   1.57175   1.59039   1.59395
 Alpha virt. eigenvalues --    1.60714   1.61373   1.62218   1.62891   1.63612
 Alpha virt. eigenvalues --    1.63831   1.64417   1.64996   1.66139   1.68549
 Alpha virt. eigenvalues --    1.69183   1.70849   1.71183   1.73346   1.74425
 Alpha virt. eigenvalues --    1.74587   1.76438   1.78653   1.80660   1.80758
 Alpha virt. eigenvalues --    1.81400   1.83546   1.84433   1.85082   1.86258
 Alpha virt. eigenvalues --    1.87950   1.91542   1.94744   1.95912   1.97034
 Alpha virt. eigenvalues --    1.98848   1.99505   2.00339   2.01679   2.03082
 Alpha virt. eigenvalues --    2.04629   2.05498   2.06508   2.07142   2.07285
 Alpha virt. eigenvalues --    2.09157   2.09727   2.13400   2.15202   2.16798
 Alpha virt. eigenvalues --    2.17020   2.17731   2.20525   2.21736   2.21889
 Alpha virt. eigenvalues --    2.23655   2.25503   2.29309   2.29516   2.35752
 Alpha virt. eigenvalues --    2.37889   2.40534   2.41371   2.45236   2.46195
 Alpha virt. eigenvalues --    2.48972   2.49741   2.50826   2.53635   2.53891
 Alpha virt. eigenvalues --    2.56893   2.58410   2.59102   2.62594   2.64168
 Alpha virt. eigenvalues --    2.66795   2.68839   2.69569   2.70878   2.73521
 Alpha virt. eigenvalues --    2.74697   2.75734   2.76928   2.78919   2.82311
 Alpha virt. eigenvalues --    2.82639   2.83317   2.83891   2.84908   2.85396
 Alpha virt. eigenvalues --    2.87904   2.89726   2.92486   2.93181   2.93561
 Alpha virt. eigenvalues --    2.97226   2.97486   2.97920   2.99590   3.02911
 Alpha virt. eigenvalues --    3.05330   3.07760   3.10587   3.12468   3.17880
 Alpha virt. eigenvalues --    3.18567   3.20345   3.21397   3.22253   3.28146
 Alpha virt. eigenvalues --    3.30229   3.31390   3.33980   3.37696   3.40668
 Alpha virt. eigenvalues --    3.46690   3.50290   3.53140   3.56802   3.61169
 Alpha virt. eigenvalues --    3.65731   3.66250   3.69079   3.70834   3.76135
 Alpha virt. eigenvalues --    3.77779   3.79650   3.80026   3.82933   3.87088
 Alpha virt. eigenvalues --    3.88773   3.89876   3.91675   3.95765   4.02443
 Alpha virt. eigenvalues --    4.06197   4.07283   4.11335   4.16753   4.20125
 Alpha virt. eigenvalues --    4.27762   4.31689   4.39297   4.63000   4.91582
 Alpha virt. eigenvalues --    4.93490   4.95296   5.15312   5.16372   5.18815
 Alpha virt. eigenvalues --    5.36581   5.65762   5.83733   5.97894   6.45041
 Alpha virt. eigenvalues --    6.57319   6.83910  23.69011  23.90094  24.00627
 Alpha virt. eigenvalues --   24.02354  24.02981  24.03392  24.05355  24.13581
 Alpha virt. eigenvalues --   24.21712  24.22594  24.29764  35.67780  50.13868
 Alpha virt. eigenvalues --   50.17419  66.95288
          Condensed to atoms (all electrons):
               1          2          3          4          5          6
     1  C   13.320217   0.704930  -2.930507  -0.167991  -0.329642  -1.191674
     2  H    0.704930   0.452710  -0.102283  -0.158490  -0.017691  -0.058478
     3  C   -2.930507  -0.102283  18.944040  -0.476774   0.284282  -0.033712
     4  C   -0.167991  -0.158490  -0.476774   8.249821   0.008468  -0.210875
     5  O   -0.329642  -0.017691   0.284282   0.008468   8.188886   0.188472
     6  C   -1.191674  -0.058478  -0.033712  -0.210875   0.188472  23.008389
     7  C   -4.181814  -0.107562   2.800836  -0.153203  -0.005803  -2.060325
     8  F   -0.212937  -0.019790  -0.079371   0.606902  -0.000394   0.012969
     9  H    0.045073   0.000891  -0.018959  -0.000013   0.215851  -0.081114
    10  C    4.677761   0.073469  -7.875502   0.227179   0.009750  -1.338813
    11  C   -2.751398  -0.024990  -1.018825  -0.820433  -0.176722  -4.621180
    12  H   -0.154399  -0.002609   0.091283  -0.167731   0.000262   0.108252
    13  O   -0.072346  -0.000601  -0.114723  -0.012479   0.020658  -0.127592
    14  H    0.217806   0.004254  -0.152212   0.048685  -0.000342  -0.156684
    15  C   -0.743216  -0.006307  -2.487861  -0.351530  -0.062340 -10.970669
    16  C    0.174607   0.001789  -1.063428  -0.079846   0.036052   2.257202
    17  H   -0.064082  -0.000966   0.068304  -0.010455  -0.002454  -0.360928
    18  H    0.001263  -0.000145  -0.039482   0.000285   0.000219  -0.032620
    19  N    0.001092  -0.000012  -0.001109   0.000179  -0.000083  -0.020478
    20  C   -0.000615   0.000020  -0.020473  -0.000480   0.000180  -0.212035
    21  C   -0.000047   0.000025  -0.000580  -0.000357   0.000326   0.045612
    22  H    0.000245   0.000003  -0.000440   0.000018   0.000004   0.014263
    23  H   -0.000208  -0.000019  -0.003286  -0.000528  -0.000035  -0.008817
    24  H    0.000124   0.000001   0.000933   0.000052   0.000011   0.000487
    25  H   -0.000127   0.000000  -0.000374   0.000003   0.000009  -0.004404
    26  H    0.000529   0.000004   0.003900   0.000020  -0.000051   0.019832
    27  H    0.000013   0.000000  -0.000165  -0.000028  -0.000007  -0.000023
               7          8          9         10         11         12
     1  C   -4.181814  -0.212937   0.045073   4.677761  -2.751398  -0.154399
     2  H   -0.107562  -0.019790   0.000891   0.073469  -0.024990  -0.002609
     3  C    2.800836  -0.079371  -0.018959  -7.875502  -1.018825   0.091283
     4  C   -0.153203   0.606902  -0.000013   0.227179  -0.820433  -0.167731
     5  O   -0.005803  -0.000394   0.215851   0.009750  -0.176722   0.000262
     6  C   -2.060325   0.012969  -0.081114  -1.338813  -4.621180   0.108252
     7  C   12.970276  -0.203351   0.009016  -5.569140   2.297010   0.613173
     8  F   -0.203351   9.133291  -0.000119  -0.051375   0.002378  -0.023216
     9  H    0.009016  -0.000119   0.265229   0.048201   0.021676   0.000354
    10  C   -5.569140  -0.051375   0.048201  22.116750  -3.561777  -0.180499
    11  C    2.297010   0.002378   0.021676  -3.561777  18.778516   0.015400
    12  H    0.613173  -0.023216   0.000354  -0.180499   0.015400   0.479873
    13  O    0.004362  -0.000014   0.091086  -0.204270   0.839235   0.000606
    14  H   -0.347158   0.001351   0.002141   1.065422  -0.064448  -0.031199
    15  C    0.943831   0.002124  -0.021923  -1.955290   0.541394   0.000043
    16  C   -0.736666   0.000292  -0.002963  -0.011135  -2.687547  -0.001675
    17  H    0.136117  -0.000082  -0.000717  -0.295143   0.065206   0.004729
    18  H   -0.002021   0.000009   0.000571   0.026307   0.098996  -0.000142
    19  N    0.000569   0.000000   0.000374   0.017467   0.004190  -0.000010
    20  C    0.017737   0.000005  -0.000977  -0.012986  -0.262709  -0.000255
    21  C   -0.000849   0.000000   0.000133  -0.010513  -0.075752   0.000060
    22  H   -0.003338   0.000000   0.000091   0.005024   0.021681  -0.000068
    23  H   -0.002213  -0.000001  -0.000182  -0.006333  -0.052111   0.000255
    24  H   -0.000120   0.000000  -0.000034  -0.002922   0.001013  -0.000023
    25  H    0.000430   0.000000  -0.000025   0.000507  -0.012130   0.000007
    26  H   -0.001141   0.000000   0.000203  -0.002677   0.020475  -0.000005
    27  H   -0.000076   0.000000   0.000007  -0.000406   0.002379   0.000002
              13         14         15         16         17         18
     1  C   -0.072346   0.217806  -0.743216   0.174607  -0.064082   0.001263
     2  H   -0.000601   0.004254  -0.006307   0.001789  -0.000966  -0.000145
     3  C   -0.114723  -0.152212  -2.487861  -1.063428   0.068304  -0.039482
     4  C   -0.012479   0.048685  -0.351530  -0.079846  -0.010455   0.000285
     5  O    0.020658  -0.000342  -0.062340   0.036052  -0.002454   0.000219
     6  C   -0.127592  -0.156684 -10.970669   2.257202  -0.360928  -0.032620
     7  C    0.004362  -0.347158   0.943831  -0.736666   0.136117  -0.002021
     8  F   -0.000014   0.001351   0.002124   0.000292  -0.000082   0.000009
     9  H    0.091086   0.002141  -0.021923  -0.002963  -0.000717   0.000571
    10  C   -0.204270   1.065422  -1.955290  -0.011135  -0.295143   0.026307
    11  C    0.839235  -0.064448   0.541394  -2.687547   0.065206   0.098996
    12  H    0.000606  -0.031199   0.000043  -0.001675   0.004729  -0.000142
    13  O    8.162581  -0.003891  -0.415252   0.185697  -0.002579   0.007729
    14  H   -0.003891   0.630642  -0.259792   0.019519  -0.058728  -0.000107
    15  C   -0.415252  -0.259792  29.715273  -9.039279   1.191859  -0.050382
    16  C    0.185697   0.019519  -9.039279  16.894866  -0.512333   0.392997
    17  H   -0.002579  -0.058728   1.191859  -0.512333   0.767726   0.007916
    18  H    0.007729  -0.000107  -0.050382   0.392997   0.007916   0.459673
    19  N    0.004881  -0.001549  -0.292671   0.235026  -0.027409  -0.065462
    20  C   -0.000523  -0.007698   0.550442  -0.266381   0.033294   0.000907
    21  C    0.001438   0.000182  -0.182053  -0.014416  -0.019909  -0.039009
    22  H   -0.000145   0.003188  -0.104933   0.080182  -0.019043  -0.001457
    23  H    0.000242  -0.009131  -0.013269   0.044378   0.022444   0.003853
    24  H    0.000137   0.000036   0.039533  -0.025029  -0.001825  -0.002381
    25  H   -0.000017  -0.000461   0.029548  -0.036822   0.002907   0.006205
    26  H    0.001301   0.000656  -0.074892   0.096387  -0.003332  -0.006346
    27  H   -0.000182   0.000159   0.032838  -0.031524  -0.000328  -0.001150
              19         20         21         22         23         24
     1  C    0.001092  -0.000615  -0.000047   0.000245  -0.000208   0.000124
     2  H   -0.000012   0.000020   0.000025   0.000003  -0.000019   0.000001
     3  C   -0.001109  -0.020473  -0.000580  -0.000440  -0.003286   0.000933
     4  C    0.000179  -0.000480  -0.000357   0.000018  -0.000528   0.000052
     5  O   -0.000083   0.000180   0.000326   0.000004  -0.000035   0.000011
     6  C   -0.020478  -0.212035   0.045612   0.014263  -0.008817   0.000487
     7  C    0.000569   0.017737  -0.000849  -0.003338  -0.002213  -0.000120
     8  F    0.000000   0.000005   0.000000   0.000000  -0.000001   0.000000
     9  H    0.000374  -0.000977   0.000133   0.000091  -0.000182  -0.000034
    10  C    0.017467  -0.012986  -0.010513   0.005024  -0.006333  -0.002922
    11  C    0.004190  -0.262709  -0.075752   0.021681  -0.052111   0.001013
    12  H   -0.000010  -0.000255   0.000060  -0.000068   0.000255  -0.000023
    13  O    0.004881  -0.000523   0.001438  -0.000145   0.000242   0.000137
    14  H   -0.001549  -0.007698   0.000182   0.003188  -0.009131   0.000036
    15  C   -0.292671   0.550442  -0.182053  -0.104933  -0.013269   0.039533
    16  C    0.235026  -0.266381  -0.014416   0.080182   0.044378  -0.025029
    17  H   -0.027409   0.033294  -0.019909  -0.019043   0.022444  -0.001825
    18  H   -0.065462   0.000907  -0.039009  -0.001457   0.003853  -0.002381
    19  N    6.831493   0.215857   0.273899  -0.053144  -0.030269  -0.056361
    20  C    0.215857   5.294538  -0.093971   0.409316   0.392226   0.401413
    21  C    0.273899  -0.093971   5.222141  -0.004445   0.005961   0.009214
    22  H   -0.053144   0.409316  -0.004445   0.493527  -0.034412  -0.026066
    23  H   -0.030269   0.392226   0.005961  -0.034412   0.548965  -0.038460
    24  H   -0.056361   0.401413   0.009214  -0.026066  -0.038460   0.528634
    25  H   -0.055773   0.024656   0.392723  -0.001616   0.003558  -0.004616
    26  H   -0.086928  -0.004618   0.413560   0.000133  -0.003177   0.002972
    27  H   -0.041664  -0.017140   0.411046   0.004131  -0.004064  -0.003023
              25         26         27
     1  C   -0.000127   0.000529   0.000013
     2  H    0.000000   0.000004   0.000000
     3  C   -0.000374   0.003900  -0.000165
     4  C    0.000003   0.000020  -0.000028
     5  O    0.000009  -0.000051  -0.000007
     6  C   -0.004404   0.019832  -0.000023
     7  C    0.000430  -0.001141  -0.000076
     8  F    0.000000   0.000000   0.000000
     9  H   -0.000025   0.000203   0.000007
    10  C    0.000507  -0.002677  -0.000406
    11  C   -0.012130   0.020475   0.002379
    12  H    0.000007  -0.000005   0.000002
    13  O   -0.000017   0.001301  -0.000182
    14  H   -0.000461   0.000656   0.000159
    15  C    0.029548  -0.074892   0.032838
    16  C   -0.036822   0.096387  -0.031524
    17  H    0.002907  -0.003332  -0.000328
    18  H    0.006205  -0.006346  -0.001150
    19  N   -0.055773  -0.086928  -0.041664
    20  C    0.024656  -0.004618  -0.017140
    21  C    0.392723   0.413560   0.411046
    22  H   -0.001616   0.000133   0.004131
    23  H    0.003558  -0.003177  -0.004064
    24  H   -0.004616   0.002972  -0.003023
    25  H    0.563374  -0.029324  -0.067289
    26  H   -0.029324   0.527149  -0.019033
    27  H   -0.067289  -0.019033   0.553567
 Mulliken charges:
               1
     1  C   -0.342658
     2  H    0.261844
     3  C    0.226486
     4  C   -0.530400
     5  O   -0.357865
     6  C    1.834940
     7  C   -0.418578
     8  F   -0.168674
     9  H    0.426129
    10  C   -1.189057
    11  C   -0.579527
    12  H    0.247535
    13  O   -0.365340
    14  H    0.099362
    15  C   -0.015227
    16  C    0.090048
    17  H    0.079812
    18  H    0.233777
    19  N    0.147896
    20  C   -0.439731
    21  C   -0.334420
    22  H    0.217300
    23  H    0.184635
    24  H    0.176298
    25  H    0.189052
    26  H    0.144403
    27  H    0.181961
 Sum of Mulliken charges =   0.00000
 Mulliken charges with hydrogens summed into heavy atoms:
               1
     1  C   -0.080814
     3  C    0.226486
     4  C   -0.530400
     5  O    0.068264
     6  C    1.834940
     7  C   -0.171043
     8  F   -0.168674
    10  C   -1.089695
    11  C   -0.579527
    13  O   -0.365340
    15  C    0.064586
    16  C    0.323825
    19  N    0.147896
    20  C    0.138502
    21  C    0.180996
 Electronic spatial extent (au):  <R**2>=          24011.8400
 Charge=              0.0000 electrons
 Dipole moment (field-independent basis, Debye):
    X=              3.7717    Y=             -3.8238    Z=              8.0738  Tot=              9.6971
 Quadrupole moment (field-independent basis, Debye-Ang):
   XX=            -55.2438   YY=            -49.9910   ZZ=            -47.5731
   XY=            -37.6576   XZ=             48.4101   YZ=            -51.3945
 Traceless Quadrupole moment (field-independent basis, Debye-Ang):
   XX=             -4.3079   YY=              0.9450   ZZ=              3.3629
   XY=            -37.6576   XZ=             48.4101   YZ=            -51.3945
 Octapole moment (field-independent basis, Debye-Ang**2):
  XXX=           -938.1740  YYY=           1082.3177  ZZZ=            -87.0434  XYY=            -88.6123
  XXY=            211.2815  XXZ=            164.0360  XZZ=           -115.4309  YZZ=            243.2796
  YYZ=            202.9429  XYZ=           -291.3265
 Hexadecapole moment (field-independent basis, Debye-Ang**3):
 XXXX=          -9560.1382 YYYY=         -13181.2589 ZZZZ=          -3935.2729 XXXY=           4644.4388
 XXXZ=           -733.5110 YYYX=           3929.3164 YYYZ=           -157.1581 ZZZX=           -695.8722
 ZZZY=            300.4150 XXYY=          -2582.5197 XXZZ=          -1014.1629 YYZZ=          -2248.3451
 XXYZ=          -1042.4219 YYXZ=            977.1958 ZZXY=            555.1991
 N-N= 9.347727016459D+02 E-N=-3.580041367833D+03  KE= 7.281716610031D+02
 Leave Link  601 at Fri Nov  3 00:43:08 2017, MaxMem=  3758096384 cpu:         0.2
 (Enter /share/apps/gaussian/g09_D01/g09/l9999.exe)
 1\1\GINC-NXV42\SP\RwB97XD TD-FC\6-311++G(d,p)\C11H12F1N1O2\BTX008\03-N
 ov-2017\0\\#p wb97xd 6-311++G** td=(nstates=4) nosymm\\Title\\0,1\C,0,
 3.000161,-4.772584,-1.661495\H,0,2.513382,-4.10673,-2.376989\C,0,3.414
 508,-4.284001,-0.410632\C,0,3.234001,-6.1005,-1.952818\O,0,3.233029,-2
 .985146,-0.133933\C,0,4.033553,-5.158132,0.540832\C,0,3.857905,-6.9878
 27,-1.079294\F,0,2.847843,-6.567691,-3.189117\H,0,3.703481,-2.888237,0
 .814525\C,0,4.248757,-6.495203,0.159082\C,0,4.465162,-4.597544,1.84510
 7\H,0,4.078481,-8.010016,-1.387404\O,0,4.369205,-3.320608,1.996474\H,0
 ,4.778356,-7.173431,0.826463\C,0,4.954161,-5.441719,2.884855\C,0,5.430
 636,-4.894741,4.065405\H,0,4.917383,-6.521437,2.7598\H,0,5.464291,-3.8
 04198,4.148496\N,0,5.846253,-5.55459,5.148074\C,0,5.786213,-7.009373,5
 .2534\C,0,6.289942,-4.849653,6.3432\H,0,4.760907,-7.34242,5.500937\H,0
 ,6.107555,-7.481233,4.314697\H,0,6.461944,-7.33795,6.056641\H,0,5.6155
 46,-5.068313,7.190408\H,0,6.300203,-3.769858,6.154429\H,0,7.301089,-5.
 190434,6.622721\\Version=ES64L-G09RevD.01\HF=-731.3879124\RMSD=8.132e-
 09\PG=C01 [X(C11H12F1N1O2)]\\@


 TIMES HAVE CHANGED. IN THE BIBLE WHEN AN ASS
 SPOKE IT WAS CONSIDERED A MIRACLE.
 Job cpu time:       0 days  1 hours  7 minutes 25.6 seconds.
 File lengths (MBytes):  RWF=    262 Int=      0 D2E=      0 Chk=     30 Scr=      1
 Normal termination of Gaussian 09 at Fri Nov  3 00:43:10 2017.
