 Entering Gaussian System, Link 0=g09
 Input=2hp_2_k846-mega_dimer_0_mon-0.com
 Output=2hp_2_k846-mega_dimer_0_mon-0.out
 Initial command:
 /share/apps/gaussian/g09_D01/g09/l1.exe "/tmp/160989.1.all.q/Gau-15030.inp" -scrdir="/tmp/160989.1.all.q/"
 Entering Link 1 = /share/apps/gaussian/g09_D01/g09/l1.exe PID=     15031.
  
 Copyright (c) 1988,1990,1992,1993,1995,1998,2003,2009,2013,
            Gaussian, Inc.  All Rights Reserved.
  
 This is part of the Gaussian(R) 09 program.  It is based on
 the Gaussian(R) 03 system (copyright 2003, Gaussian, Inc.),
 the Gaussian(R) 98 system (copyright 1998, Gaussian, Inc.),
 the Gaussian(R) 94 system (copyright 1995, Gaussian, Inc.),
 the Gaussian 92(TM) system (copyright 1992, Gaussian, Inc.),
 the Gaussian 90(TM) system (copyright 1990, Gaussian, Inc.),
 the Gaussian 88(TM) system (copyright 1988, Gaussian, Inc.),
 the Gaussian 86(TM) system (copyright 1986, Carnegie Mellon
 University), and the Gaussian 82(TM) system (copyright 1983,
 Carnegie Mellon University). Gaussian is a federally registered
 trademark of Gaussian, Inc.
  
 This software contains proprietary and confidential information,
 including trade secrets, belonging to Gaussian, Inc.
  
 This software is provided under written license and may be
 used, copied, transmitted, or stored only in accord with that
 written license.
  
 The following legend is applicable only to US Government
 contracts under FAR:
  
                    RESTRICTED RIGHTS LEGEND
  
 Use, reproduction and disclosure by the US Government is
 subject to restrictions as set forth in subparagraphs (a)
 and (c) of the Commercial Computer Software - Restricted
 Rights clause in FAR 52.227-19.
  
 Gaussian, Inc.
 340 Quinnipiac St., Bldg. 40, Wallingford CT 06492
  
  
 ---------------------------------------------------------------
 Warning -- This program may not be used in any manner that
 competes with the business of Gaussian, Inc. or will provide
 assistance to any competitor of Gaussian, Inc.  The licensee
 of this program is prohibited from giving any competitor of
 Gaussian, Inc. access to this program.  By using this program,
 the user acknowledges that Gaussian, Inc. is engaged in the
 business of creating and licensing software in the field of
 computational chemistry and represents and warrants to the
 licensee that it is not a competitor of Gaussian, Inc. and that
 it will not use this program in any manner prohibited above.
 ---------------------------------------------------------------
  

 Cite this work as:
 Gaussian 09, Revision D.01,
 M. J. Frisch, G. W. Trucks, H. B. Schlegel, G. E. Scuseria, 
 M. A. Robb, J. R. Cheeseman, G. Scalmani, V. Barone, B. Mennucci, 
 G. A. Petersson, H. Nakatsuji, M. Caricato, X. Li, H. P. Hratchian, 
 A. F. Izmaylov, J. Bloino, G. Zheng, J. L. Sonnenberg, M. Hada, 
 M. Ehara, K. Toyota, R. Fukuda, J. Hasegawa, M. Ishida, T. Nakajima, 
 Y. Honda, O. Kitao, H. Nakai, T. Vreven, J. A. Montgomery, Jr., 
 J. E. Peralta, F. Ogliaro, M. Bearpark, J. J. Heyd, E. Brothers, 
 K. N. Kudin, V. N. Staroverov, T. Keith, R. Kobayashi, J. Normand, 
 K. Raghavachari, A. Rendell, J. C. Burant, S. S. Iyengar, J. Tomasi, 
 M. Cossi, N. Rega, J. M. Millam, M. Klene, J. E. Knox, J. B. Cross, 
 V. Bakken, C. Adamo, J. Jaramillo, R. Gomperts, R. E. Stratmann, 
 O. Yazyev, A. J. Austin, R. Cammi, C. Pomelli, J. W. Ochterski, 
 R. L. Martin, K. Morokuma, V. G. Zakrzewski, G. A. Voth, 
 P. Salvador, J. J. Dannenberg, S. Dapprich, A. D. Daniels, 
 O. Farkas, J. B. Foresman, J. V. Ortiz, J. Cioslowski, 
 and D. J. Fox, Gaussian, Inc., Wallingford CT, 2013.
 
 ******************************************
 Gaussian 09:  ES64L-G09RevD.01 24-Apr-2013
                 2-Nov-2017 
 ******************************************
 %chk=2hp_2_k846-mega_dimer_0_mon-0.chk
 %nproc=4
 Will use up to    4 processors via shared memory.
 %mem=28GB
 ------------------------------------------
 #p wb97xd 6-311++G** td=(nstates=4) nosymm
 ------------------------------------------
 1/38=1/1;
 2/12=2,15=1,17=6,18=5,40=1/2;
 3/5=4,6=6,7=1111,11=9,16=1,25=1,30=1,74=-58/1,2,8,3;
 4//1;
 5/5=2,38=5/2;
 8/6=1,10=2,108=4/1;
 9/41=4,42=1,70=2/14;
 6/7=2,8=2,9=2,10=2/1;
 99/5=1,9=1/99;
 Leave Link    1 at Thu Nov  2 21:48:44 2017, MaxMem=  3758096384 cpu:         0.4
 (Enter /share/apps/gaussian/g09_D01/g09/l101.exe)
 -----
 Title
 -----
 Symbolic Z-matrix:
 Charge =  0 Multiplicity = 1
 C                    -0.24221  -15.90915  -0.27864 
 H                    -0.25247  -14.82936  -0.08988 
 H                    -1.25335  -16.24993  -0.55817 
 H                     0.43219  -16.12781  -1.12585 
 N                     0.20149  -16.61409   0.91648 
 C                     0.26152  -18.06887   0.81116 
 C                     0.61709  -15.95424   1.99916 
 H                    -0.4142   -18.39745   0.00792 
 H                     1.28683  -18.40192   0.56362 
 H                    -0.05982  -18.54073   1.74986 
 H                     0.58344  -14.8637   1.91606 
 C                     1.09358  -16.50122   3.17971 
 C                     1.58258  -15.65704   4.21945 
 H                     1.13036  -17.58094   3.30476 
 O                     1.67854  -14.38011   4.06809 
 C                     2.01418  -16.21763   5.52373 
 H                     2.34426  -13.94774   5.25004 
 C                     2.63323  -15.3435   6.47519 
 C                     1.79898  -17.5547   5.90548 
 O                     2.81471  -14.04465   6.19849 
 C                     3.04757  -15.83208   7.72606 
 C                     2.18984  -18.04733   7.14385 
 H                     1.26938  -18.23293   5.2381 
 H                     3.53435  -15.16623   8.44154 
 C                     2.81374  -17.16     8.01738 
 H                     1.96925  -19.06952   7.45196 
 F                     3.19989  -17.62719   9.25368 
 
 NAtoms=     27 NQM=       27 NQMF=       0 NMMI=      0 NMMIF=      0
                NMic=       0 NMicF=      0.
                    Isotopes and Nuclear Properties:
 (Nuclear quadrupole moments (NQMom) in fm**2, nuclear magnetic moments (NMagM)
  in nuclear magnetons)

  Atom         1           2           3           4           5           6           7           8           9          10
 IAtWgt=          12           1           1           1          14          12          12           1           1           1
 AtmWgt=  12.0000000   1.0078250   1.0078250   1.0078250  14.0030740  12.0000000  12.0000000   1.0078250   1.0078250   1.0078250
 NucSpn=           0           1           1           1           2           0           0           1           1           1
 AtZEff=   0.0000000   0.0000000   0.0000000   0.0000000   0.0000000   0.0000000   0.0000000   0.0000000   0.0000000   0.0000000
 NQMom=    0.0000000   0.0000000   0.0000000   0.0000000   2.0440000   0.0000000   0.0000000   0.0000000   0.0000000   0.0000000
 NMagM=    0.0000000   2.7928460   2.7928460   2.7928460   0.4037610   0.0000000   0.0000000   2.7928460   2.7928460   2.7928460
 AtZNuc=   6.0000000   1.0000000   1.0000000   1.0000000   7.0000000   6.0000000   6.0000000   1.0000000   1.0000000   1.0000000

  Atom        11          12          13          14          15          16          17          18          19          20
 IAtWgt=           1          12          12           1          16          12           1          12          12          16
 AtmWgt=   1.0078250  12.0000000  12.0000000   1.0078250  15.9949146  12.0000000   1.0078250  12.0000000  12.0000000  15.9949146
 NucSpn=           1           0           0           1           0           0           1           0           0           0
 AtZEff=   0.0000000   0.0000000   0.0000000   0.0000000   0.0000000   0.0000000   0.0000000   0.0000000   0.0000000   0.0000000
 NQMom=    0.0000000   0.0000000   0.0000000   0.0000000   0.0000000   0.0000000   0.0000000   0.0000000   0.0000000   0.0000000
 NMagM=    2.7928460   0.0000000   0.0000000   2.7928460   0.0000000   0.0000000   2.7928460   0.0000000   0.0000000   0.0000000
 AtZNuc=   1.0000000   6.0000000   6.0000000   1.0000000   8.0000000   6.0000000   1.0000000   6.0000000   6.0000000   8.0000000

  Atom        21          22          23          24          25          26          27
 IAtWgt=          12          12           1           1          12           1          19
 AtmWgt=  12.0000000  12.0000000   1.0078250   1.0078250  12.0000000   1.0078250  18.9984033
 NucSpn=           0           0           1           1           0           1           1
 AtZEff=   0.0000000   0.0000000   0.0000000   0.0000000   0.0000000   0.0000000   0.0000000
 NQMom=    0.0000000   0.0000000   0.0000000   0.0000000   0.0000000   0.0000000   0.0000000
 NMagM=    0.0000000   0.0000000   2.7928460   2.7928460   0.0000000   2.7928460   2.6288670
 AtZNuc=   6.0000000   6.0000000   1.0000000   1.0000000   6.0000000   1.0000000   9.0000000
 Leave Link  101 at Thu Nov  2 21:48:45 2017, MaxMem=  3758096384 cpu:         0.3
 (Enter /share/apps/gaussian/g09_D01/g09/l202.exe)
                          Input orientation:                          
 ---------------------------------------------------------------------
 Center     Atomic      Atomic             Coordinates (Angstroms)
 Number     Number       Type             X           Y           Z
 ---------------------------------------------------------------------
      1          6           0       -0.242207  -15.909153   -0.278636
      2          1           0       -0.252468  -14.829358   -0.089876
      3          1           0       -1.253355  -16.249934   -0.558167
      4          1           0        0.432188  -16.127813   -1.125854
      5          7           0        0.201487  -16.614090    0.916476
      6          6           0        0.261517  -18.068873    0.811160
      7          6           0        0.617094  -15.954241    1.999155
      8          1           0       -0.414204  -18.397450    0.007919
      9          1           0        1.286833  -18.401920    0.563623
     10          1           0       -0.059815  -18.540733    1.749863
     11          1           0        0.583439  -14.863698    1.916064
     12          6           0        1.093579  -16.501219    3.179705
     13          6           0        1.582578  -15.657044    4.219453
     14          1           0        1.130357  -17.580937    3.304760
     15          8           0        1.678535  -14.380108    4.068086
     16          6           0        2.014177  -16.217632    5.523728
     17          1           0        2.344259  -13.947737    5.250035
     18          6           0        2.633227  -15.343501    6.475186
     19          6           0        1.798983  -17.554703    5.905478
     20          8           0        2.814705  -14.044646    6.198487
     21          6           0        3.047574  -15.832084    7.726059
     22          6           0        2.189840  -18.047327    7.143848
     23          1           0        1.269384  -18.232931    5.238097
     24          1           0        3.534352  -15.166230    8.441543
     25          6           0        2.813744  -17.160000    8.017382
     26          1           0        1.969254  -19.069516    7.451958
     27          9           0        3.199892  -17.627191    9.253681
 ---------------------------------------------------------------------
                    Distance matrix (angstroms):
                    1          2          3          4          5
     1  C    0.000000
     2  H    1.096218   0.000000
     3  H    1.103037   1.799752   0.000000
     4  H    1.104717   1.796661   1.782761   0.000000
     5  N    1.456741   2.098592   2.103271   2.112061   0.000000
     6  C    2.470988   3.401544   2.734672   2.747520   1.459825
     7  C    2.434905   2.526965   3.182123   3.135283   1.334288
     8  H    2.510641   3.573094   2.374121   2.674523   2.094021
     9  H    3.043230   3.944580   3.513120   2.959107   2.121042
    10  H    3.327655   4.146813   3.464001   3.786027   2.115364
    11  H    2.567367   2.173411   3.378947   3.297594   2.051569
    12  C    3.754329   3.911153   4.420739   4.372037   2.435318
    13  C    4.860679   4.756340   5.587458   5.487926   3.705807
    14  H    4.185633   4.583333   4.730313   4.714801   2.738885
    15  O    4.992116   4.606435   5.787439   5.620041   4.135818
    16  C    6.233286   6.211082   6.904148   6.835766   4.966870
    17  H    6.411175   6.002907   7.209587   7.004335   5.520928
    18  C    7.362214   7.189688   8.086730   7.952077   6.198953
    19  C    6.716960   6.897842   7.266216   7.303682   5.322301
    20  O    7.400961   7.040372   8.189309   7.978843   6.428887
    21  C    8.654695   8.543101   9.343500   9.234937   7.421736
    22  C    8.098142   8.285346   8.625964   8.669593   6.692375
    23  H    6.174074   6.502895   6.625192   6.755168   4.736819
    24  H    9.531834   9.340161  10.251406  10.103621   8.356490
    25  C    8.929018   8.975588   9.534650   9.504524   7.585827
    26  H    8.639476   8.932763   9.082805   9.197557   7.201850
    27  F   10.279337  10.346435  10.862808  10.846339   8.917724
                    6          7          8          9         10
     6  C    0.000000
     7  C    2.451415   0.000000
     8  H    1.099890   3.316303   0.000000
     9  H    1.106105   2.915551   1.789512   0.000000
    10  H    1.098667   2.685199   1.783393   1.799971   0.000000
    11  H    3.405524   1.094222   4.138081   3.852645   3.736574
    12  C    2.959708   1.385612   3.991156   3.239428   2.744883
    13  C    4.379336   2.439305   5.406846   4.581146   4.136664
    14  H    2.685332   2.148065   3.731156   2.865716   2.180693
    15  O    5.120790   2.808029   6.083054   5.348800   5.070189
    16  C    5.357911   3.800504   6.408806   5.468344   4.892882
    17  H    6.405091   4.192538   7.408701   6.551363   6.255109
    18  C    6.718173   4.946984   7.774251   6.790676   6.308997
    19  C    5.346050   4.383800   6.355283   5.432816   4.657952
    20  O    7.192806   5.109837   8.227751   7.285048   6.947512
    21  C    7.783390   6.222506   8.839383   7.810554   7.259998
    22  C    6.619806   5.772556   7.604283   6.651355   5.865106
    23  H    4.543180   4.013559   5.496935   4.677560   3.745569
    24  H    8.795427   7.115878   9.856870   8.808102   8.311672
    25  C    7.698672   6.519063   8.723671   7.709238   7.031754
    26  H    6.929491   6.423888   7.845143   6.954174   6.075411
    27  F    8.950156   7.880213   9.956862   8.931803   8.232104
                   11         12         13         14         15
    11  H    0.000000
    12  C    2.130377   0.000000
    13  C    2.633112   1.425773   0.000000
    14  H    3.100159   1.087558   2.177735   0.000000
    15  O    2.462579   2.372869   1.289452   3.335936   0.000000
    16  C    4.110400   2.534239   1.483803   2.750192   2.368131
    17  H    3.880056   3.517206   2.136349   4.296254   1.423775
    18  C    5.021696   3.817201   2.508088   4.161291   2.762914
    19  C    4.963313   3.006204   2.547670   2.685420   3.669955
    20  O    4.897810   4.255593   2.834526   4.869912   2.437627
    21  C    6.384808   4.993513   3.804358   5.126606   4.166926
    22  C    6.328171   4.393935   3.825481   4.009816   4.813548
    23  H    4.781020   2.695684   2.787637   2.045047   4.047292
    24  H    7.168074   5.952017   4.677218   6.164133   4.815514
    25  C    6.890090   5.176493   4.266018   5.021930   4.961193
    26  H    7.089112   5.061136   4.716309   4.485406   5.790134
    27  F    8.265794   6.526680   5.642751   6.298792   6.304639
                   16         17         18         19         20
    16  C    0.000000
    17  H    2.310040   0.000000
    18  C    1.432690   1.879536   0.000000
    19  C    1.407054   3.706364   2.431038   0.000000
    20  O    2.412056   1.063143   1.340344   3.665794   0.000000
    21  C    2.463091   3.190002   1.405375   2.800163   2.362761
    22  C    2.450190   4.518519   2.820350   1.388887   4.160002
    23  H    2.167425   4.417962   3.426261   1.088975   4.566410
    24  H    3.453986   3.617564   2.170256   3.892035   2.609050
    25  C    2.783105   4.265825   2.389691   2.376062   3.607466
    26  H    3.442867   5.587639   3.908725   2.171463   5.247408
    27  F    4.159967   5.504514   3.640932   3.630188   4.724109
                   21         22         23         24         25
    21  C    0.000000
    22  C    2.445808   0.000000
    23  H    3.887928   2.124518   0.000000
    24  H    1.091894   3.434013   4.979639   0.000000
    25  C    1.379459   1.392719   3.355690   2.162015   0.000000
    26  H    3.423284   1.090165   2.467969   4.320237   2.163127
    27  F    2.362041   2.376576   4.496521   2.612998   1.376885
                   26         27
    26  H    0.000000
    27  F    2.615526   0.000000
 Symmetry turned off by external request.
 Stoichiometry    C11H12FNO2
 Framework group  C1[X(C11H12FNO2)]
 Deg. of freedom    75
 Full point group                 C1      NOp   1
 Rotational constants (GHZ):      1.4400597      0.2488682      0.2133864
 Leave Link  202 at Thu Nov  2 21:48:45 2017, MaxMem=  3758096384 cpu:         0.2
 (Enter /share/apps/gaussian/g09_D01/g09/l301.exe)
 Standard basis: 6-311++G(d,p) (5D, 7F)
 Ernie: Thresh=  0.10000D-02 Tol=  0.10000D-05 Strict=F.
   414 basis functions,   648 primitive gaussians,   429 cartesian basis functions
    55 alpha electrons       55 beta electrons
       nuclear repulsion energy       934.7876600502 Hartrees.
 IExCor= 4639 DFT=T Ex+Corr=wB97XD ExCW=0 ScaHFX=  1.000000
 ScaDFX=  1.000000  1.000000  1.000000  1.000000 ScalE2=  1.000000  1.000000
 IRadAn=      0 IRanWt=     -1 IRanGd=            0 ICorTp=0 IEmpDi=121
  HFx wShort=  0.000000 wLong=  0.200000 cFull=  0.222036 cShort=  0.000000 cLong=  0.777964
  DFx wShort=  0.000000 wLong=  0.200000 cFull=  0.000000 cShort=  0.000000 cLong=  1.000000
 NAtoms=   27 NActive=   27 NUniq=   27 SFac= 1.00D+00 NAtFMM=   60 NAOKFM=F Big=F
 Integral buffers will be    131072 words long.
 Raffenetti 1 integral format.
 Two-electron integral symmetry is turned off.
 R6Disp:  Grimme-D2 Dispersion energy=       -0.0150363821 Hartrees.
 Nuclear repulsion after empirical dispersion term =      934.7726236681 Hartrees.
 Leave Link  301 at Thu Nov  2 21:48:45 2017, MaxMem=  3758096384 cpu:         0.1
 (Enter /share/apps/gaussian/g09_D01/g09/l302.exe)
 NPDir=0 NMtPBC=     1 NCelOv=     1 NCel=       1 NClECP=     1 NCelD=      1
         NCelK=      1 NCelE2=     1 NClLst=     1 CellRange=     0.0.
 One-electron integrals computed using PRISM.
 NBasis=   414 RedAO= T EigKep=  1.31D-06  NBF=   414
 NBsUse=   412 1.00D-06 EigRej=  7.56D-07 NBFU=   412
 Precomputing XC quadrature grid using
 IXCGrd= 4 IRadAn=           0 IRanWt=          -1 IRanGd=           0 AccXCQ= 0.00D+00.
 Generated NRdTot=       0 NPtTot=           0 NUsed=           0 NTot=          32
 NSgBfM=   425   425   425   425   425 MxSgAt=    27 MxSgA2=    27.
 Leave Link  302 at Thu Nov  2 21:48:45 2017, MaxMem=  3758096384 cpu:         1.9
 (Enter /share/apps/gaussian/g09_D01/g09/l308.exe)
 Leave Link  308 at Thu Nov  2 21:48:45 2017, MaxMem=  3758096384 cpu:         0.2
 (Enter /share/apps/gaussian/g09_D01/g09/l303.exe)
 DipDrv:  MaxL=1.
 Leave Link  303 at Thu Nov  2 21:48:46 2017, MaxMem=  3758096384 cpu:         0.2
 (Enter /share/apps/gaussian/g09_D01/g09/l401.exe)
 ExpMin= 3.60D-02 ExpMax= 1.14D+04 ExpMxC= 1.72D+03 IAcc=3 IRadAn=         5 AccDes= 0.00D+00
 Harris functional with IExCor= 4639 and IRadAn=       5 diagonalized for initial guess.
 HarFok:  IExCor= 4639 AccDes= 0.00D+00 IRadAn=         5 IDoV= 1 UseB2=F ITyADJ=14
 ICtDFT=  3500011 ScaDFX=  1.000000  1.000000  1.000000  1.000000
 FoFCou: FMM=F IPFlag=           0 FMFlag=      100000 FMFlg1=           0
         NFxFlg=           0 DoJE=T BraDBF=F KetDBF=T FulRan=T
         wScrn=  0.000000 ICntrl=     500 IOpCl=  0 I1Cent=   200000004 NGrid=           0
         NMat0=    1 NMatS0=      1 NMatT0=    0 NMatD0=    1 NMtDS0=    0 NMtDT0=    0
 Symmetry not used in FoFCou.
 Harris En= -701.389987617588    
 JPrj=0 DoOrth=F DoCkMO=F.
 Leave Link  401 at Thu Nov  2 21:48:52 2017, MaxMem=  3758096384 cpu:        25.1
 (Enter /share/apps/gaussian/g09_D01/g09/l502.exe)
 Closed shell SCF:
 Using DIIS extrapolation, IDIIS=  1040.
 Two-electron integral symmetry not used.
 IVT=      575875 IEndB=      575875 NGot=  3758096384 MDV=  3757721620
 LenX=  3757721620 LenY=  3757537138
 Requested convergence on RMS density matrix=1.00D-08 within 128 cycles.
 Requested convergence on MAX density matrix=1.00D-06.
 Requested convergence on             energy=1.00D-06.
 No special actions if energy rises.
 Fock matrices will be formed incrementally for  20 cycles.

 Cycle   1  Pass 1  IDiag  1:
 FoFJK:  IHMeth= 1 ICntrl=       0 DoSepK=T KAlg= 0 I1Cent=   0 FoldK=F
 IRaf=         1 NMat=   1 IRICut=       1 DoRegI=T DoRafI=F ISym2E= 0.
 FoFCou: FMM=F IPFlag=           0 FMFlag=      100000 FMFlg1=           0
         NFxFlg=           0 DoJE=T BraDBF=F KetDBF=F FulRan=T
         wScrn=  0.000000 ICntrl=     500 IOpCl=  0 I1Cent=           0 NGrid=           0
         NMat0=    1 NMatS0=      1 NMatT0=    0 NMatD0=    1 NMtDS0=    0 NMtDT0=    0
 Symmetry not used in FoFCou.
 E= -731.037811314783    
 DIIS: error= 1.16D-01 at cycle   1 NSaved=   1.
 NSaved= 1 IEnMin= 1 EnMin= -731.037811314783     IErMin= 1 ErrMin= 1.16D-01
 ErrMax= 1.16D-01  0.00D+00 EMaxC= 1.00D-01 BMatC= 1.75D+00 BMatP= 1.75D+00
 IDIUse=3 WtCom= 0.00D+00 WtEn= 1.00D+00
 Coeff-Com:  0.100D+01
 Coeff-En:   0.100D+01
 Coeff:      0.100D+01
 Gap=     0.312 Goal=   None    Shift=    0.000
 GapD=    0.312 DampG=1.000 DampE=0.250 DampFc=0.2500 IDamp=-1.
 Damping current iteration by 2.50D-01
 RMSDP=4.96D-02 MaxDP=5.43D+00              OVMax= 1.83D-01

 Cycle   2  Pass 1  IDiag  1:
 RMSU=  3.11D-03    CP:  9.06D-01
 E= -731.156833716328     Delta-E=       -0.119022401545 Rises=F Damp=T
 DIIS: error= 8.35D-02 at cycle   2 NSaved=   2.
 NSaved= 2 IEnMin= 2 EnMin= -731.156833716328     IErMin= 2 ErrMin= 8.35D-02
 ErrMax= 8.35D-02  0.00D+00 EMaxC= 1.00D-01 BMatC= 8.27D-01 BMatP= 1.75D+00
 IDIUse=3 WtCom= 1.65D-01 WtEn= 8.35D-01
 Coeff-Com: -0.172D+01 0.272D+01
 Coeff-En:   0.000D+00 0.100D+01
 Coeff:     -0.284D+00 0.128D+01
 Gap=     0.275 Goal=   None    Shift=    0.000
 RMSDP=3.30D-02 MaxDP=3.62D+00 DE=-1.19D-01 OVMax= 7.15D-02

 Cycle   3  Pass 1  IDiag  1:
 RMSU=  3.79D-03    CP:  6.55D-01  3.00D+00
 E= -731.357017808434     Delta-E=       -0.200184092105 Rises=F Damp=F
 DIIS: error= 1.31D-02 at cycle   3 NSaved=   3.
 NSaved= 3 IEnMin= 3 EnMin= -731.357017808434     IErMin= 3 ErrMin= 1.31D-02
 ErrMax= 1.31D-02  0.00D+00 EMaxC= 1.00D-01 BMatC= 5.07D-02 BMatP= 8.27D-01
 IDIUse=3 WtCom= 8.69D-01 WtEn= 1.31D-01
 Coeff-Com:  0.109D+01-0.141D+01 0.132D+01
 Coeff-En:   0.000D+00 0.000D+00 0.100D+01
 Coeff:      0.947D+00-0.123D+01 0.128D+01
 Gap=     0.285 Goal=   None    Shift=    0.000
 RMSDP=5.72D-03 MaxDP=6.81D-01 DE=-2.00D-01 OVMax= 2.89D-02

 Cycle   4  Pass 1  IDiag  1:
 RMSU=  4.29D-03    CP:  6.28D-01  2.84D+00  1.21D+00
 E= -731.384610265643     Delta-E=       -0.027592457210 Rises=F Damp=F
 DIIS: error= 3.67D-03 at cycle   4 NSaved=   4.
 NSaved= 4 IEnMin= 4 EnMin= -731.384610265643     IErMin= 4 ErrMin= 3.67D-03
 ErrMax= 3.67D-03  0.00D+00 EMaxC= 1.00D-01 BMatC= 4.86D-03 BMatP= 5.07D-02
 IDIUse=3 WtCom= 9.63D-01 WtEn= 3.67D-02
 Coeff-Com:  0.433D+00-0.564D+00 0.603D+00 0.527D+00
 Coeff-En:   0.000D+00 0.000D+00 0.000D+00 0.100D+01
 Coeff:      0.417D+00-0.543D+00 0.581D+00 0.545D+00
 Gap=     0.282 Goal=   None    Shift=    0.000
 RMSDP=1.72D-03 MaxDP=1.75D-01 DE=-2.76D-02 OVMax= 9.91D-03

 Cycle   5  Pass 1  IDiag  1:
 RMSU=  9.45D-04    CP:  6.36D-01  3.00D+00  1.28D+00  8.10D-01
 E= -731.387654015592     Delta-E=       -0.003043749948 Rises=F Damp=F
 DIIS: error= 8.04D-04 at cycle   5 NSaved=   5.
 NSaved= 5 IEnMin= 5 EnMin= -731.387654015592     IErMin= 5 ErrMin= 8.04D-04
 ErrMax= 8.04D-04  0.00D+00 EMaxC= 1.00D-01 BMatC= 2.73D-04 BMatP= 4.86D-03
 IDIUse=3 WtCom= 9.92D-01 WtEn= 8.04D-03
 Coeff-Com:  0.694D-02-0.856D-02 0.413D-01 0.212D+00 0.748D+00
 Coeff-En:   0.000D+00 0.000D+00 0.000D+00 0.000D+00 0.100D+01
 Coeff:      0.688D-02-0.849D-02 0.409D-01 0.210D+00 0.750D+00
 Gap=     0.282 Goal=   None    Shift=    0.000
 RMSDP=1.11D-03 MaxDP=1.34D-01 DE=-3.04D-03 OVMax= 4.24D-03

 Cycle   6  Pass 1  IDiag  1:
 RMSU=  3.71D-04    CP:  6.28D-01  3.00D+00  1.26D+00  8.91D-01  1.04D+00
 E= -731.387875004407     Delta-E=       -0.000220988815 Rises=F Damp=F
 DIIS: error= 3.36D-04 at cycle   6 NSaved=   6.
 NSaved= 6 IEnMin= 6 EnMin= -731.387875004407     IErMin= 6 ErrMin= 3.36D-04
 ErrMax= 3.36D-04  0.00D+00 EMaxC= 1.00D-01 BMatC= 2.67D-05 BMatP= 2.73D-04
 IDIUse=3 WtCom= 9.97D-01 WtEn= 3.36D-03
 Coeff-Com: -0.300D-01 0.394D-01-0.302D-01 0.457D-01 0.322D+00 0.654D+00
 Coeff-En:   0.000D+00 0.000D+00 0.000D+00 0.000D+00 0.000D+00 0.100D+01
 Coeff:     -0.299D-01 0.393D-01-0.301D-01 0.455D-01 0.321D+00 0.655D+00
 Gap=     0.283 Goal=   None    Shift=    0.000
 RMSDP=2.34D-04 MaxDP=2.43D-02 DE=-2.21D-04 OVMax= 2.76D-03

 Cycle   7  Pass 1  IDiag  1:
 RMSU=  9.18D-05    CP:  6.27D-01  3.00D+00  1.27D+00  9.08D-01  1.13D+00
                    CP:  1.20D+00
 E= -731.387904572983     Delta-E=       -0.000029568576 Rises=F Damp=F
 DIIS: error= 9.99D-05 at cycle   7 NSaved=   7.
 NSaved= 7 IEnMin= 7 EnMin= -731.387904572983     IErMin= 7 ErrMin= 9.99D-05
 ErrMax= 9.99D-05  0.00D+00 EMaxC= 1.00D-01 BMatC= 4.30D-06 BMatP= 2.67D-05
 IDIUse=1 WtCom= 1.00D+00 WtEn= 0.00D+00
 Coeff-Com: -0.109D-01 0.141D-01-0.199D-01-0.205D-01 0.209D-02 0.255D+00
 Coeff-Com:  0.780D+00
 Coeff:     -0.109D-01 0.141D-01-0.199D-01-0.205D-01 0.209D-02 0.255D+00
 Coeff:      0.780D+00
 Gap=     0.283 Goal=   None    Shift=    0.000
 RMSDP=1.32D-04 MaxDP=1.36D-02 DE=-2.96D-05 OVMax= 9.40D-04

 Cycle   8  Pass 1  IDiag  1:
 RMSU=  3.37D-05    CP:  6.26D-01  3.00D+00  1.27D+00  9.24D-01  1.18D+00
                    CP:  1.37D+00  1.18D+00
 E= -731.387910971594     Delta-E=       -0.000006398611 Rises=F Damp=F
 DIIS: error= 6.49D-05 at cycle   8 NSaved=   8.
 NSaved= 8 IEnMin= 8 EnMin= -731.387910971594     IErMin= 8 ErrMin= 6.49D-05
 ErrMax= 6.49D-05  0.00D+00 EMaxC= 1.00D-01 BMatC= 8.49D-07 BMatP= 4.30D-06
 IDIUse=1 WtCom= 1.00D+00 WtEn= 0.00D+00
 Coeff-Com:  0.305D-02-0.422D-02-0.257D-02-0.220D-01-0.727D-01-0.830D-02
 Coeff-Com:  0.365D+00 0.741D+00
 Coeff:      0.305D-02-0.422D-02-0.257D-02-0.220D-01-0.727D-01-0.830D-02
 Coeff:      0.365D+00 0.741D+00
 Gap=     0.283 Goal=   None    Shift=    0.000
 RMSDP=4.07D-05 MaxDP=3.32D-03 DE=-6.40D-06 OVMax= 7.86D-04

 Cycle   9  Pass 1  IDiag  1:
 RMSU=  2.13D-05    CP:  6.26D-01  3.00D+00  1.27D+00  9.27D-01  1.20D+00
                    CP:  1.45D+00  1.17D+00  1.16D+00
 E= -731.387912508492     Delta-E=       -0.000001536898 Rises=F Damp=F
 DIIS: error= 1.37D-05 at cycle   9 NSaved=   9.
 NSaved= 9 IEnMin= 9 EnMin= -731.387912508492     IErMin= 9 ErrMin= 1.37D-05
 ErrMax= 1.37D-05  0.00D+00 EMaxC= 1.00D-01 BMatC= 8.54D-08 BMatP= 8.49D-07
 IDIUse=1 WtCom= 1.00D+00 WtEn= 0.00D+00
 Coeff-Com:  0.234D-02-0.309D-02 0.213D-02-0.291D-02-0.179D-01-0.342D-01
 Coeff-Com: -0.433D-01 0.214D+00 0.883D+00
 Coeff:      0.234D-02-0.309D-02 0.213D-02-0.291D-02-0.179D-01-0.342D-01
 Coeff:     -0.433D-01 0.214D+00 0.883D+00
 Gap=     0.283 Goal=   None    Shift=    0.000
 RMSDP=1.72D-05 MaxDP=1.66D-03 DE=-1.54D-06 OVMax= 2.59D-04

 Cycle  10  Pass 1  IDiag  1:
 RMSU=  4.53D-06    CP:  6.27D-01  3.00D+00  1.27D+00  9.27D-01  1.20D+00
                    CP:  1.46D+00  1.14D+00  1.33D+00  1.31D+00
 E= -731.387912681437     Delta-E=       -0.000000172945 Rises=F Damp=F
 DIIS: error= 7.58D-06 at cycle  10 NSaved=  10.
 NSaved=10 IEnMin=10 EnMin= -731.387912681437     IErMin=10 ErrMin= 7.58D-06
 ErrMax= 7.58D-06  0.00D+00 EMaxC= 1.00D-01 BMatC= 1.21D-08 BMatP= 8.54D-08
 IDIUse=1 WtCom= 1.00D+00 WtEn= 0.00D+00
 Coeff-Com:  0.269D-03-0.314D-03 0.128D-02 0.300D-02 0.731D-02-0.753D-02
 Coeff-Com: -0.841D-01-0.308D-01 0.309D+00 0.802D+00
 Coeff:      0.269D-03-0.314D-03 0.128D-02 0.300D-02 0.731D-02-0.753D-02
 Coeff:     -0.841D-01-0.308D-01 0.309D+00 0.802D+00
 Gap=     0.283 Goal=   None    Shift=    0.000
 RMSDP=1.01D-05 MaxDP=1.05D-03 DE=-1.73D-07 OVMax= 8.76D-05

 Cycle  11  Pass 1  IDiag  1:
 RMSU=  2.38D-06    CP:  6.27D-01  3.00D+00  1.27D+00  9.26D-01  1.20D+00
                    CP:  1.46D+00  1.13D+00  1.40D+00  1.38D+00  1.35D+00
 E= -731.387912704632     Delta-E=       -0.000000023194 Rises=F Damp=F
 DIIS: error= 2.01D-06 at cycle  11 NSaved=  11.
 NSaved=11 IEnMin=11 EnMin= -731.387912704632     IErMin=11 ErrMin= 2.01D-06
 ErrMax= 2.01D-06  0.00D+00 EMaxC= 1.00D-01 BMatC= 8.83D-10 BMatP= 1.21D-08
 IDIUse=1 WtCom= 1.00D+00 WtEn= 0.00D+00
 Coeff-Com: -0.884D-04 0.129D-03 0.185D-03 0.937D-03 0.300D-02 0.159D-02
 Coeff-Com: -0.179D-01-0.221D-01-0.756D-02 0.176D+00 0.866D+00
 Coeff:     -0.884D-04 0.129D-03 0.185D-03 0.937D-03 0.300D-02 0.159D-02
 Coeff:     -0.179D-01-0.221D-01-0.756D-02 0.176D+00 0.866D+00
 Gap=     0.283 Goal=   None    Shift=    0.000
 RMSDP=1.78D-06 MaxDP=1.31D-04 DE=-2.32D-08 OVMax= 3.39D-05

 Cycle  12  Pass 1  IDiag  1:
 RMSU=  7.88D-07    CP:  6.27D-01  3.00D+00  1.27D+00  9.26D-01  1.20D+00
                    CP:  1.46D+00  1.12D+00  1.41D+00  1.40D+00  1.51D+00
                    CP:  1.24D+00
 E= -731.387912706843     Delta-E=       -0.000000002211 Rises=F Damp=F
 DIIS: error= 1.20D-06 at cycle  12 NSaved=  12.
 NSaved=12 IEnMin=12 EnMin= -731.387912706843     IErMin=12 ErrMin= 1.20D-06
 ErrMax= 1.20D-06  0.00D+00 EMaxC= 1.00D-01 BMatC= 1.66D-10 BMatP= 8.83D-10
 IDIUse=1 WtCom= 1.00D+00 WtEn= 0.00D+00
 Coeff-Com: -0.314D-04 0.391D-04-0.843D-04-0.121D-03-0.173D-03 0.144D-02
 Coeff-Com:  0.524D-02-0.239D-02-0.404D-01-0.664D-01 0.263D+00 0.840D+00
 Coeff:     -0.314D-04 0.391D-04-0.843D-04-0.121D-03-0.173D-03 0.144D-02
 Coeff:      0.524D-02-0.239D-02-0.404D-01-0.664D-01 0.263D+00 0.840D+00
 Gap=     0.283 Goal=   None    Shift=    0.000
 RMSDP=7.02D-07 MaxDP=6.14D-05 DE=-2.21D-09 OVMax= 1.56D-05

 Cycle  13  Pass 1  IDiag  1:
 RMSU=  2.38D-07    CP:  6.27D-01  3.00D+00  1.27D+00  9.26D-01  1.20D+00
                    CP:  1.46D+00  1.12D+00  1.41D+00  1.40D+00  1.58D+00
                    CP:  1.35D+00  1.24D+00
 E= -731.387912707308     Delta-E=       -0.000000000465 Rises=F Damp=F
 DIIS: error= 4.80D-07 at cycle  13 NSaved=  13.
 NSaved=13 IEnMin=13 EnMin= -731.387912707308     IErMin=13 ErrMin= 4.80D-07
 ErrMax= 4.80D-07  0.00D+00 EMaxC= 1.00D-01 BMatC= 3.07D-11 BMatP= 1.66D-10
 IDIUse=1 WtCom= 1.00D+00 WtEn= 0.00D+00
 Coeff-Com: -0.274D-05 0.765D-06-0.654D-04-0.191D-03-0.541D-03 0.350D-03
 Coeff-Com:  0.485D-02 0.194D-02-0.143D-01-0.547D-01-0.249D-01 0.311D+00
 Coeff-Com:  0.777D+00
 Coeff:     -0.274D-05 0.765D-06-0.654D-04-0.191D-03-0.541D-03 0.350D-03
 Coeff:      0.485D-02 0.194D-02-0.143D-01-0.547D-01-0.249D-01 0.311D+00
 Coeff:      0.777D+00
 Gap=     0.283 Goal=   None    Shift=    0.000
 RMSDP=3.73D-07 MaxDP=2.67D-05 DE=-4.65D-10 OVMax= 6.81D-06

 Cycle  14  Pass 1  IDiag  1:
 RMSU=  1.19D-07    CP:  6.27D-01  3.00D+00  1.27D+00  9.26D-01  1.20D+00
                    CP:  1.46D+00  1.11D+00  1.41D+00  1.41D+00  1.60D+00
                    CP:  1.40D+00  1.42D+00  1.48D+00
 E= -731.387912707411     Delta-E=       -0.000000000103 Rises=F Damp=F
 DIIS: error= 2.32D-07 at cycle  14 NSaved=  14.
 NSaved=14 IEnMin=14 EnMin= -731.387912707411     IErMin=14 ErrMin= 2.32D-07
 ErrMax= 2.32D-07  0.00D+00 EMaxC= 1.00D-01 BMatC= 5.86D-12 BMatP= 3.07D-11
 IDIUse=1 WtCom= 1.00D+00 WtEn= 0.00D+00
 Coeff-Com: -0.143D-06-0.210D-06-0.101D-04-0.337D-04-0.124D-03-0.921D-04
 Coeff-Com:  0.666D-03 0.795D-03 0.374D-02-0.597D-02-0.528D-01-0.273D-01
 Coeff-Com:  0.268D+00 0.813D+00
 Coeff:     -0.143D-06-0.210D-06-0.101D-04-0.337D-04-0.124D-03-0.921D-04
 Coeff:      0.666D-03 0.795D-03 0.374D-02-0.597D-02-0.528D-01-0.273D-01
 Coeff:      0.268D+00 0.813D+00
 Gap=     0.283 Goal=   None    Shift=    0.000
 RMSDP=1.97D-07 MaxDP=2.25D-05 DE=-1.03D-10 OVMax= 2.67D-06

 Cycle  15  Pass 1  IDiag  1:
 RMSU=  5.18D-08    CP:  6.27D-01  3.00D+00  1.27D+00  9.26D-01  1.20D+00
                    CP:  1.46D+00  1.12D+00  1.41D+00  1.41D+00  1.60D+00
                    CP:  1.40D+00  1.45D+00  1.68D+00  1.08D+00
 E= -731.387912707413     Delta-E=       -0.000000000002 Rises=F Damp=F
 DIIS: error= 9.69D-08 at cycle  15 NSaved=  15.
 NSaved=15 IEnMin=15 EnMin= -731.387912707413     IErMin=15 ErrMin= 9.69D-08
 ErrMax= 9.69D-08  0.00D+00 EMaxC= 1.00D-01 BMatC= 1.12D-12 BMatP= 5.86D-12
 IDIUse=1 WtCom= 1.00D+00 WtEn= 0.00D+00
 Coeff-Com: -0.221D-05 0.339D-05 0.870D-05 0.343D-04 0.874D-04-0.935D-04
 Coeff-Com: -0.832D-03-0.554D-03 0.401D-02 0.994D-02-0.133D-01-0.770D-01
 Coeff-Com: -0.102D+00 0.256D+00 0.924D+00
 Coeff:     -0.221D-05 0.339D-05 0.870D-05 0.343D-04 0.874D-04-0.935D-04
 Coeff:     -0.832D-03-0.554D-03 0.401D-02 0.994D-02-0.133D-01-0.770D-01
 Coeff:     -0.102D+00 0.256D+00 0.924D+00
 Gap=     0.283 Goal=   None    Shift=    0.000
 RMSDP=1.29D-07 MaxDP=1.37D-05 DE=-2.05D-12 OVMax= 1.85D-06

 Cycle  16  Pass 1  IDiag  1:
 RMSU=  2.06D-08    CP:  6.27D-01  3.00D+00  1.27D+00  9.26D-01  1.20D+00
                    CP:  1.46D+00  1.12D+00  1.41D+00  1.41D+00  1.60D+00
                    CP:  1.39D+00  1.48D+00  1.80D+00  1.14D+00  1.43D+00
 E= -731.387912707395     Delta-E=        0.000000000018 Rises=F Damp=F
 DIIS: error= 2.39D-08 at cycle  16 NSaved=  16.
 NSaved=16 IEnMin=15 EnMin= -731.387912707413     IErMin=16 ErrMin= 2.39D-08
 ErrMax= 2.39D-08  0.00D+00 EMaxC= 1.00D-01 BMatC= 1.64D-13 BMatP= 1.12D-12
 IDIUse=1 WtCom= 1.00D+00 WtEn= 0.00D+00
 Coeff-Com: -0.189D-06 0.410D-06 0.387D-05 0.134D-04 0.393D-04-0.919D-05
 Coeff-Com: -0.272D-03-0.303D-03 0.614D-03 0.369D-02 0.386D-02-0.116D-01
 Coeff-Com: -0.672D-01-0.645D-01 0.238D+00 0.897D+00
 Coeff:     -0.189D-06 0.410D-06 0.387D-05 0.134D-04 0.393D-04-0.919D-05
 Coeff:     -0.272D-03-0.303D-03 0.614D-03 0.369D-02 0.386D-02-0.116D-01
 Coeff:     -0.672D-01-0.645D-01 0.238D+00 0.897D+00
 Gap=     0.283 Goal=   None    Shift=    0.000
 RMSDP=2.94D-08 MaxDP=3.23D-06 DE= 1.82D-11 OVMax= 5.36D-07

 Cycle  17  Pass 1  IDiag  1:
 RMSU=  5.82D-09    CP:  6.27D-01  3.00D+00  1.27D+00  9.26D-01  1.20D+00
                    CP:  1.46D+00  1.11D+00  1.41D+00  1.41D+00  1.60D+00
                    CP:  1.39D+00  1.48D+00  1.81D+00  1.15D+00  1.68D+00
                    CP:  1.30D+00
 E= -731.387912707408     Delta-E=       -0.000000000013 Rises=F Damp=F
 DIIS: error= 1.30D-08 at cycle  17 NSaved=  17.
 NSaved=17 IEnMin=15 EnMin= -731.387912707413     IErMin=17 ErrMin= 1.30D-08
 ErrMax= 1.30D-08  0.00D+00 EMaxC= 1.00D-01 BMatC= 3.54D-14 BMatP= 1.64D-13
 IDIUse=1 WtCom= 1.00D+00 WtEn= 0.00D+00
 Coeff-Com:  0.252D-06-0.359D-06-0.329D-06-0.190D-05-0.244D-05 0.145D-04
 Coeff-Com:  0.699D-04-0.436D-04-0.645D-03-0.460D-03 0.417D-02 0.119D-01
 Coeff-Com: -0.706D-02-0.814D-01-0.867D-01 0.375D+00 0.786D+00
 Coeff:      0.252D-06-0.359D-06-0.329D-06-0.190D-05-0.244D-05 0.145D-04
 Coeff:      0.699D-04-0.436D-04-0.645D-03-0.460D-03 0.417D-02 0.119D-01
 Coeff:     -0.706D-02-0.814D-01-0.867D-01 0.375D+00 0.786D+00
 Gap=     0.283 Goal=   None    Shift=    0.000
 RMSDP=8.05D-09 MaxDP=4.72D-07 DE=-1.30D-11 OVMax= 1.76D-07

 SCF Done:  E(RwB97XD) =  -731.387912707     A.U. after   17 cycles
            NFock= 17  Conv=0.81D-08     -V/T= 2.0044
 KE= 7.281716564805D+02 PE=-3.580041181183D+03 EE= 1.185708988327D+03
 Leave Link  502 at Thu Nov  2 21:53:37 2017, MaxMem=  3758096384 cpu:      1134.8
 (Enter /share/apps/gaussian/g09_D01/g09/l801.exe)
 DoSCS=F DFT=T ScalE2(SS,OS)=  1.000000  1.000000
 ExpMin= 3.60D-02 ExpMax= 1.14D+04 ExpMxC= 1.72D+03 IAcc=3 IRadAn=         5 AccDes= 0.00D+00
 HarFok:  IExCor=  205 AccDes= 0.00D+00 IRadAn=         5 IDoV=-2 UseB2=F ITyADJ=14
 ICtDFT= 12500011 ScaDFX=  1.000000  1.000000  1.000000  1.000000
 Largest valence mixing into a core orbital is  5.73D-05
 Largest core mixing into a valence orbital is  1.59D-05
 Range of M.O.s used for correlation:    16   412
 NBasis=   414 NAE=    55 NBE=    55 NFC=    15 NFV=     0
 NROrb=    397 NOA=    40 NOB=    40 NVA=   357 NVB=   357

 **** Warning!!: The largest alpha MO coefficient is  0.13975039D+03

 Leave Link  801 at Thu Nov  2 21:53:37 2017, MaxMem=  3758096384 cpu:         1.1
 (Enter /share/apps/gaussian/g09_D01/g09/l914.exe)
 RHF ground state
 MDV=  3758096384 DFT=T DoStab=F Mixed=T DoRPA=T DoScal=F NonHer=T
 Would need an additional         18445000000 words for in-memory AO integral storage.
 Making orbital integer symmetry assigments:
    16 initial guesses have been made.
 Convergence on wavefunction:    0.001000000000000
 Davidson Disk Diagonalization:  ConvIn= 1.00D-03 SkipCon=T Conv= 1.00D-03.
 Max sub-space:   200 roots to seek:    16 dimension of matrix:        28560
 Iteration     1 Dimension    16 NMult     0 NNew     16
 CISAX will form    16 AO SS matrices at one time.
 NMat=    16 NSing=    16 JSym2X= 0.
 FoFJK:  IHMeth= 1 ICntrl=       0 DoSepK=T KAlg= 0 I1Cent=   0 FoldK=F
 IRaf=         1 NMat=  32 IRICut=       1 DoRegI=T DoRafI=F ISym2E= 0.
 FoFCou: FMM=F IPFlag=           0 FMFlag=      100000 FMFlg1=           0
         NFxFlg=           0 DoJE=F BraDBF=F KetDBF=F FulRan=T
         wScrn=  0.000000 ICntrl=     500 IOpCl=  0 I1Cent=           0 NGrid=           0
         NMat0=   16 NMatS0=     16 NMatT0=    0 NMatD0=   16 NMtDS0=    0 NMtDT0=    0
 Symmetry not used in FoFCou.
 New state      2 was old state      7
 New state      3 was old state      2
 New state      4 was old state      3
 Excitation Energies [eV] at current iteration:
 Root      1 :     4.508802473263293
 Root      2 :     4.574404623613882
 Root      3 :     5.321607370394484
 Root      4 :     5.847650806943637
 Root      5 :     5.926355148804800
 Root      6 :     6.346883523170785
 Root      7 :     6.597711303374223
 Root      8 :     6.623787784387490
 Root      9 :     6.862854298038577
 Root     10 :     6.921816786906223
 Root     11 :     7.077710554908159
 Root     12 :     7.108242135694785
 Root     13 :     7.430912885017437
 Root     14 :     7.537127368203056
 Root     15 :     7.782821736108863
 Root     16 :     7.911714134496950
 Iteration     2 Dimension    24 NMult    16 NNew      8
 CISAX will form     8 AO SS matrices at one time.
 NMat=     8 NSing=     8 JSym2X= 0.
 Root      1 not converged, maximum delta is    0.356237472718580
 Root      2 not converged, maximum delta is    0.325292759052487
 Root      3 not converged, maximum delta is    0.112399016329675
 Root      4 not converged, maximum delta is    0.353101523085567
 Excitation Energies [eV] at current iteration:
 Root      1 :     4.026163415528334   Change is   -0.482639057734959
 Root      2 :     4.271467011777441   Change is   -0.302937611836442
 Root      3 :     4.619697761641913   Change is   -0.701909608752571
 Root      4 :     5.521969768453903   Change is   -0.325681038489734
 Iteration     3 Dimension    32 NMult    24 NNew      8
 CISAX will form     8 AO SS matrices at one time.
 NMat=     8 NSing=     8 JSym2X= 0.
 Root      1 not converged, maximum delta is    0.021285978316420
 Root      2 not converged, maximum delta is    0.009635921703060
 Root      3 not converged, maximum delta is    0.029983882987293
 Root      4 not converged, maximum delta is    0.273100674953925
 Excitation Energies [eV] at current iteration:
 Root      1 :     3.982214658607558   Change is   -0.043948756920776
 Root      2 :     4.254686645901136   Change is   -0.016780365876305
 Root      3 :     4.561653157534099   Change is   -0.058044604107815
 Root      4 :     5.291445430483061   Change is   -0.230524337970842
 Iteration     4 Dimension    40 NMult    32 NNew      8
 CISAX will form     8 AO SS matrices at one time.
 NMat=     8 NSing=     8 JSym2X= 0.
 Root      1 not converged, maximum delta is    0.008458905225140
 Root      2 not converged, maximum delta is    0.003940660080527
 Root      3 not converged, maximum delta is    0.010410872728428
 Root      4 not converged, maximum delta is    0.058328735120447
 Excitation Energies [eV] at current iteration:
 Root      1 :     3.974632814294071   Change is   -0.007581844313487
 Root      2 :     4.253027791199749   Change is   -0.001658854701386
 Root      3 :     4.548914344105429   Change is   -0.012738813428669
 Root      4 :     5.206417926573249   Change is   -0.085027503909811
 Iteration     5 Dimension    48 NMult    40 NNew      8
 CISAX will form     8 AO SS matrices at one time.
 NMat=     8 NSing=     8 JSym2X= 0.
 Root      1 not converged, maximum delta is    0.002667225062735
 Root      2 not converged, maximum delta is    0.001350107710496
 Root      3 not converged, maximum delta is    0.003507311647850
 Root      4 not converged, maximum delta is    0.017705384956126
 Excitation Energies [eV] at current iteration:
 Root      1 :     3.973701931231418   Change is   -0.000930883062653
 Root      2 :     4.252886160093540   Change is   -0.000141631106208
 Root      3 :     4.547532495207257   Change is   -0.001381848898172
 Root      4 :     5.195592517298742   Change is   -0.010825409274508
 Iteration     6 Dimension    56 NMult    48 NNew      8
 CISAX will form     8 AO SS matrices at one time.
 NMat=     8 NSing=     8 JSym2X= 0.
 Root      1 not converged, maximum delta is    0.001006490459695
 Root      2 has converged.
 Root      3 not converged, maximum delta is    0.001086075819216
 Root      4 not converged, maximum delta is    0.006607161678276
 Excitation Energies [eV] at current iteration:
 Root      1 :     3.973601147369689   Change is   -0.000100783861730
 Root      2 :     4.252868583216303   Change is   -0.000017576877237
 Root      3 :     4.547389601664091   Change is   -0.000142893543167
 Root      4 :     5.193934421646805   Change is   -0.001658095651937
 Iteration     7 Dimension    62 NMult    56 NNew      6
 CISAX will form     6 AO SS matrices at one time.
 NMat=     6 NSing=     6 JSym2X= 0.
 Root      1 has converged.
 Root      2 has converged.
 Root      3 has converged.
 Root      4 not converged, maximum delta is    0.001766283276357
 Excitation Energies [eV] at current iteration:
 Root      1 :     3.973593305007079   Change is   -0.000007842362610
 Root      2 :     4.252868068652790   Change is   -0.000000514563514
 Root      3 :     4.547374084403454   Change is   -0.000015517260636
 Root      4 :     5.193741342749712   Change is   -0.000193078897093
 Iteration     8 Dimension    64 NMult    62 NNew      2
 CISAX will form     2 AO SS matrices at one time.
 NMat=     2 NSing=     2 JSym2X= 0.
 Root      1 has converged.
 Root      2 has converged.
 Root      3 has converged.
 Root      4 has converged.
 Excitation Energies [eV] at current iteration:
 Root      1 :     3.973593286144669   Change is   -0.000000018862410
 Root      2 :     4.252868062111938   Change is   -0.000000006540851
 Root      3 :     4.547373982757613   Change is   -0.000000101645843
 Root      4 :     5.193726247261157   Change is   -0.000015095488555
 Convergence achieved on expansion vectors.
 ***********************************************************************
 Excited states from <AA,BB:AA,BB> singles matrix:
 ***********************************************************************
 
 1PDM for each excited state written to RWF  633
 Ground to excited state transition densities written to RWF  633
 Ground to excited state transition electric dipole moments (Au):
       state          X           Y           Z        Dip. S.      Osc.
         1        -0.8984     -0.2757     -2.2338      5.8732      0.5718
         2         0.0591     -0.0058      0.2309      0.0568      0.0059
         3         0.4143      0.1593      1.2712      1.8130      0.2020
         4         0.0408     -0.4270      0.2312      0.2375      0.0302
 Ground to excited state transition velocity dipole moments (Au):
       state          X           Y           Z        Dip. S.      Osc.
         1         0.1304      0.0421      0.3234      0.1234      0.5632
         2        -0.0081      0.0005     -0.0351      0.0013      0.0055
         3        -0.0675     -0.0244     -0.2082      0.0485      0.1935
         4        -0.0045      0.0792     -0.0352      0.0075      0.0263
 Ground to excited state transition magnetic dipole moments (Au):
       state          X           Y           Z
         1       -10.6088      0.2581      4.2870
         2         0.9532     -0.4044     -0.1913
         3         5.6800      0.2107     -1.7680
         4         0.1860      0.1450      0.1625
 Ground to excited state transition velocity quadrupole moments (Au):
       state          XX          YY          ZZ          XY          XZ          YZ
         1         0.7305     -2.4104      5.0413     -3.8402      1.9779     -9.7086
         2        -0.0496     -0.0465     -0.6114      0.2728     -0.2002      1.0765
         3        -0.1079      1.3295     -1.8633      2.1102     -0.5363      6.6507
         4        -0.0826     -4.7996     -1.2183      0.3669     -0.3660      1.7409
 <0|del|b> * <b|rxdel|0> + <0|del|b> * <b|delr+rdel|0>
 Rotatory Strengths (R) in cgs (10**-40 erg-esu-cm/Gauss)
       state          XX          YY          ZZ    R(velocity)    E-M Angle
         1       174.6972    -50.5772    -56.4612     22.5529       89.80
         2        -6.6875     -0.3523      1.6184     -1.8071       91.81
         3      -189.3788    -52.0030    155.4164    -28.6551       90.89
         4        40.4883     -2.6679    -19.5251      6.0984       78.54
 1/2[<0|r|b>*<b|rxdel|0> + (<0|rxdel|b>*<b|r|0>)*]
 Rotatory Strengths (R) in cgs (10**-40 erg-esu-cm/Gauss)
       state          XX          YY          ZZ     R(length)
         1     -6740.0112     50.3101   6772.1400     27.4796
         2       -39.8156     -1.6643     31.2321     -3.4159
         3     -1663.9902    -23.7364   1589.3627    -32.7880
         4        -5.3598     43.7940    -26.5765      3.9526
  1/2[<0|del|b>*<b|r|0> + (<0|r|b>*<b|del|0>)*] (Au)
       state          X           Y           Z        Dip. S.   Osc.(frdel)
         1        -0.1171     -0.0116     -0.7224      0.8512      0.5675
         2        -0.0005      0.0000     -0.0081      0.0086      0.0057
         3        -0.0280     -0.0039     -0.2647      0.2965      0.1977
         4        -0.0002     -0.0338     -0.0081      0.0421      0.0281

 Excitation energies and oscillator strengths:
 
 Excited state symmetry could not be determined.
 Excited State   1:      Singlet-?Sym    3.9736 eV  312.02 nm  f=0.5718  <S**2>=0.000
      55 -> 56         0.67975
 This state for optimization and/or second-order correction.
 Total Energy, E(TD-HF/TD-KS) =  -731.241885835    
 Copying the excited state density for this state as the 1-particle RhoCI density.
 
 Excited state symmetry could not be determined.
 Excited State   2:      Singlet-?Sym    4.2529 eV  291.53 nm  f=0.0059  <S**2>=0.000
      52 -> 56         0.67483
      53 -> 56         0.10836
 
 Excited state symmetry could not be determined.
 Excited State   3:      Singlet-?Sym    4.5474 eV  272.65 nm  f=0.2020  <S**2>=0.000
      54 -> 56         0.67083
 
 Excited state symmetry could not be determined.
 Excited State   4:      Singlet-?Sym    5.1937 eV  238.72 nm  f=0.0302  <S**2>=0.000
      53 -> 56         0.55454
      54 -> 59        -0.11359
      54 -> 60         0.10785
      54 -> 61        -0.11156
      55 -> 59        -0.15257
      55 -> 60         0.15113
      55 -> 61        -0.18327
      55 -> 64        -0.10813
 SavETr:  write IOETrn=   770 NScale= 10 NData=  16 NLR=1 NState=    4 LETran=      82.
 Leave Link  914 at Thu Nov  2 22:06:12 2017, MaxMem=  3758096384 cpu:      3010.2
 (Enter /share/apps/gaussian/g09_D01/g09/l601.exe)
 Copying SCF densities to generalized density rwf, IOpCl= 0 IROHF=0.

 **********************************************************************

            Population analysis using the SCF density.

 **********************************************************************

 Alpha  occ. eigenvalues --  -24.81115 -19.24248 -19.23108 -14.50761 -10.38371
 Alpha  occ. eigenvalues --  -10.38142 -10.36524 -10.36156 -10.35279 -10.35176
 Alpha  occ. eigenvalues --  -10.31050 -10.29924 -10.29185 -10.28718 -10.28698
 Alpha  occ. eigenvalues --   -1.31680  -1.15143  -1.11136  -1.10035  -0.96460
 Alpha  occ. eigenvalues --   -0.90406  -0.86929  -0.86042  -0.84763  -0.81338
 Alpha  occ. eigenvalues --   -0.74095  -0.71446  -0.69848  -0.66115  -0.63702
 Alpha  occ. eigenvalues --   -0.63039  -0.60618  -0.59581  -0.59235  -0.57768
 Alpha  occ. eigenvalues --   -0.55172  -0.54720  -0.53119  -0.52671  -0.52443
 Alpha  occ. eigenvalues --   -0.52310  -0.51067  -0.50488  -0.50212  -0.49213
 Alpha  occ. eigenvalues --   -0.47426  -0.46681  -0.45628  -0.43075  -0.42752
 Alpha  occ. eigenvalues --   -0.41749  -0.34406  -0.33522  -0.31100  -0.29093
 Alpha virt. eigenvalues --   -0.00801   0.02172   0.03808   0.04956   0.05061
 Alpha virt. eigenvalues --    0.05333   0.06191   0.06654   0.07375   0.07478
 Alpha virt. eigenvalues --    0.07700   0.08064   0.09166   0.10280   0.10663
 Alpha virt. eigenvalues --    0.10892   0.12271   0.12581   0.12715   0.12994
 Alpha virt. eigenvalues --    0.13430   0.14132   0.14510   0.15137   0.15779
 Alpha virt. eigenvalues --    0.16248   0.16330   0.16575   0.16834   0.17158
 Alpha virt. eigenvalues --    0.17834   0.18070   0.18260   0.18606   0.18902
 Alpha virt. eigenvalues --    0.19337   0.19527   0.20333   0.20625   0.20884
 Alpha virt. eigenvalues --    0.21407   0.21819   0.21996   0.22533   0.23080
 Alpha virt. eigenvalues --    0.23601   0.23835   0.24052   0.24979   0.25209
 Alpha virt. eigenvalues --    0.25593   0.26000   0.26691   0.26908   0.27410
 Alpha virt. eigenvalues --    0.27719   0.28174   0.28387   0.29069   0.29392
 Alpha virt. eigenvalues --    0.30017   0.30251   0.30985   0.31636   0.32089
 Alpha virt. eigenvalues --    0.32845   0.33273   0.34294   0.34576   0.34953
 Alpha virt. eigenvalues --    0.35277   0.35649   0.36371   0.37512   0.37739
 Alpha virt. eigenvalues --    0.37914   0.38276   0.38770   0.39269   0.40064
 Alpha virt. eigenvalues --    0.40571   0.41341   0.42439   0.42684   0.43248
 Alpha virt. eigenvalues --    0.43430   0.44373   0.44687   0.45416   0.46302
 Alpha virt. eigenvalues --    0.47211   0.48814   0.49070   0.49507   0.50070
 Alpha virt. eigenvalues --    0.50727   0.51493   0.52666   0.53761   0.54355
 Alpha virt. eigenvalues --    0.56782   0.56986   0.58911   0.60031   0.61815
 Alpha virt. eigenvalues --    0.62533   0.62958   0.64066   0.64896   0.65148
 Alpha virt. eigenvalues --    0.65973   0.66739   0.67264   0.67723   0.68764
 Alpha virt. eigenvalues --    0.69125   0.69671   0.70412   0.70830   0.70987
 Alpha virt. eigenvalues --    0.72407   0.73337   0.74009   0.74715   0.75560
 Alpha virt. eigenvalues --    0.76009   0.77331   0.77549   0.79501   0.79777
 Alpha virt. eigenvalues --    0.80114   0.80520   0.81042   0.82776   0.84483
 Alpha virt. eigenvalues --    0.85121   0.87683   0.88608   0.90833   0.92440
 Alpha virt. eigenvalues --    0.93130   0.93884   0.94669   0.96056   0.96588
 Alpha virt. eigenvalues --    0.97091   0.98129   1.01196   1.02030   1.02863
 Alpha virt. eigenvalues --    1.03338   1.04847   1.06139   1.06574   1.06989
 Alpha virt. eigenvalues --    1.09837   1.10693   1.10918   1.12259   1.13586
 Alpha virt. eigenvalues --    1.14762   1.16836   1.17272   1.17540   1.18653
 Alpha virt. eigenvalues --    1.20613   1.21386   1.23931   1.26100   1.27787
 Alpha virt. eigenvalues --    1.31369   1.31857   1.34255   1.34529   1.35903
 Alpha virt. eigenvalues --    1.37083   1.39284   1.39973   1.44463   1.47565
 Alpha virt. eigenvalues --    1.49275   1.50113   1.52428   1.52887   1.54015
 Alpha virt. eigenvalues --    1.55423   1.56676   1.57174   1.59039   1.59395
 Alpha virt. eigenvalues --    1.60714   1.61373   1.62217   1.62891   1.63612
 Alpha virt. eigenvalues --    1.63832   1.64417   1.64996   1.66139   1.68549
 Alpha virt. eigenvalues --    1.69183   1.70849   1.71183   1.73347   1.74425
 Alpha virt. eigenvalues --    1.74587   1.76438   1.78654   1.80660   1.80758
 Alpha virt. eigenvalues --    1.81400   1.83545   1.84433   1.85082   1.86258
 Alpha virt. eigenvalues --    1.87950   1.91542   1.94744   1.95912   1.97034
 Alpha virt. eigenvalues --    1.98848   1.99505   2.00339   2.01679   2.03082
 Alpha virt. eigenvalues --    2.04629   2.05498   2.06508   2.07142   2.07285
 Alpha virt. eigenvalues --    2.09157   2.09727   2.13400   2.15202   2.16798
 Alpha virt. eigenvalues --    2.17020   2.17731   2.20525   2.21736   2.21889
 Alpha virt. eigenvalues --    2.23655   2.25503   2.29309   2.29516   2.35752
 Alpha virt. eigenvalues --    2.37889   2.40534   2.41371   2.45236   2.46195
 Alpha virt. eigenvalues --    2.48972   2.49741   2.50825   2.53634   2.53891
 Alpha virt. eigenvalues --    2.56893   2.58411   2.59102   2.62594   2.64168
 Alpha virt. eigenvalues --    2.66795   2.68839   2.69569   2.70878   2.73521
 Alpha virt. eigenvalues --    2.74697   2.75734   2.76928   2.78919   2.82311
 Alpha virt. eigenvalues --    2.82639   2.83317   2.83891   2.84907   2.85396
 Alpha virt. eigenvalues --    2.87904   2.89726   2.92486   2.93181   2.93561
 Alpha virt. eigenvalues --    2.97226   2.97486   2.97920   2.99590   3.02911
 Alpha virt. eigenvalues --    3.05330   3.07760   3.10587   3.12469   3.17880
 Alpha virt. eigenvalues --    3.18568   3.20345   3.21397   3.22253   3.28145
 Alpha virt. eigenvalues --    3.30229   3.31389   3.33980   3.37696   3.40668
 Alpha virt. eigenvalues --    3.46690   3.50290   3.53140   3.56802   3.61170
 Alpha virt. eigenvalues --    3.65732   3.66250   3.69079   3.70834   3.76135
 Alpha virt. eigenvalues --    3.77778   3.79650   3.80026   3.82932   3.87089
 Alpha virt. eigenvalues --    3.88773   3.89877   3.91675   3.95765   4.02444
 Alpha virt. eigenvalues --    4.06197   4.07282   4.11335   4.16753   4.20125
 Alpha virt. eigenvalues --    4.27762   4.31689   4.39298   4.63000   4.91583
 Alpha virt. eigenvalues --    4.93491   4.95296   5.15312   5.16372   5.18815
 Alpha virt. eigenvalues --    5.36581   5.65762   5.83733   5.97895   6.45041
 Alpha virt. eigenvalues --    6.57319   6.83910  23.69011  23.90094  24.00627
 Alpha virt. eigenvalues --   24.02354  24.02980  24.03391  24.05354  24.13581
 Alpha virt. eigenvalues --   24.21712  24.22593  24.29763  35.67779  50.13868
 Alpha virt. eigenvalues --   50.17419  66.95288
          Condensed to atoms (all electrons):
               1          2          3          4          5          6
     1  C    5.222148   0.413562   0.411049   0.392721   0.273894  -0.093970
     2  H    0.413562   0.527147  -0.019033  -0.029324  -0.086927  -0.004618
     3  H    0.411049  -0.019033   0.553570  -0.067291  -0.041666  -0.017139
     4  H    0.392721  -0.029324  -0.067291   0.563379  -0.055775   0.024656
     5  N    0.273894  -0.086927  -0.041666  -0.055775   6.831489   0.215853
     6  C   -0.093970  -0.004618  -0.017139   0.024656   0.215853   5.294538
     7  C   -0.014391   0.096382  -0.031524  -0.036819   0.235040  -0.266343
     8  H    0.009215   0.002972  -0.003023  -0.004617  -0.056360   0.401413
     9  H   -0.004445   0.000133   0.004130  -0.001616  -0.053144   0.409319
    10  H    0.005960  -0.003177  -0.004064   0.003558  -0.030271   0.392224
    11  H   -0.039009  -0.006346  -0.001150   0.006205  -0.065463   0.000907
    12  C   -0.182090  -0.074886   0.032834   0.029548  -0.292686   0.550437
    13  C   -0.075743   0.020473   0.002379  -0.012130   0.004199  -0.262733
    14  H   -0.019911  -0.003332  -0.000328   0.002907  -0.027409   0.033296
    15  O    0.001438   0.001302  -0.000182  -0.000017   0.004881  -0.000523
    16  C    0.045615   0.019830  -0.000023  -0.004403  -0.020472  -0.212034
    17  H    0.000133   0.000203   0.000007  -0.000025   0.000373  -0.000977
    18  C   -0.000581   0.003900  -0.000165  -0.000374  -0.001106  -0.020472
    19  C   -0.010511  -0.002677  -0.000406   0.000507   0.017463  -0.012992
    20  O    0.000326  -0.000051  -0.000007   0.000009  -0.000083   0.000180
    21  C   -0.000047   0.000529   0.000013  -0.000127   0.001092  -0.000615
    22  C   -0.000849  -0.001141  -0.000076   0.000430   0.000568   0.017734
    23  H    0.000182   0.000656   0.000159  -0.000461  -0.001549  -0.007698
    24  H    0.000025   0.000004   0.000000   0.000000  -0.000012   0.000020
    25  C   -0.000357   0.000020  -0.000028   0.000003   0.000179  -0.000480
    26  H    0.000060  -0.000005   0.000002   0.000007  -0.000010  -0.000255
    27  F    0.000000   0.000000   0.000000   0.000000   0.000000   0.000005
               7          8          9         10         11         12
     1  C   -0.014391   0.009215  -0.004445   0.005960  -0.039009  -0.182090
     2  H    0.096382   0.002972   0.000133  -0.003177  -0.006346  -0.074886
     3  H   -0.031524  -0.003023   0.004130  -0.004064  -0.001150   0.032834
     4  H   -0.036819  -0.004617  -0.001616   0.003558   0.006205   0.029548
     5  N    0.235040  -0.056360  -0.053144  -0.030271  -0.065463  -0.292686
     6  C   -0.266343   0.401413   0.409319   0.392224   0.000907   0.550437
     7  C   16.894721  -0.025022   0.080175   0.044377   0.393031  -9.039175
     8  H   -0.025022   0.528631  -0.026065  -0.038460  -0.002381   0.039528
     9  H    0.080175  -0.026065   0.493529  -0.034412  -0.001457  -0.104932
    10  H    0.044377  -0.038460  -0.034412   0.548965   0.003853  -0.013268
    11  H    0.393031  -0.002381  -0.001457   0.003853   0.459674  -0.050421
    12  C   -9.039175   0.039528  -0.104932  -0.013268  -0.050421  29.715628
    13  C   -2.687365   0.001009   0.021684  -0.052105   0.098996   0.541077
    14  H   -0.512354  -0.001824  -0.019043   0.022441   0.007915   1.191867
    15  O    0.185700   0.000137  -0.000145   0.000242   0.007729  -0.415263
    16  C    2.256916   0.000488   0.014261  -0.008819  -0.032617 -10.970623
    17  H   -0.002966  -0.000034   0.000091  -0.000182   0.000571  -0.021919
    18  C   -1.063462   0.000933  -0.000440  -0.003287  -0.039487  -2.487984
    19  C   -0.011074  -0.002923   0.005026  -0.006331   0.026313  -1.955231
    20  O    0.036052   0.000011   0.000004  -0.000035   0.000219  -0.062340
    21  C    0.174610   0.000124   0.000245  -0.000208   0.001264  -0.743277
    22  C   -0.736613  -0.000120  -0.003337  -0.002213  -0.002022   0.943812
    23  H    0.019518   0.000036   0.003188  -0.009131  -0.000107  -0.259782
    24  H    0.001789   0.000001   0.000003  -0.000019  -0.000145  -0.006307
    25  C   -0.079856   0.000052   0.000018  -0.000528   0.000285  -0.351513
    26  H   -0.001675  -0.000023  -0.000068   0.000255  -0.000142   0.000041
    27  F    0.000292   0.000000   0.000000  -0.000001   0.000009   0.002124
              13         14         15         16         17         18
     1  C   -0.075743  -0.019911   0.001438   0.045615   0.000133  -0.000581
     2  H    0.020473  -0.003332   0.001302   0.019830   0.000203   0.003900
     3  H    0.002379  -0.000328  -0.000182  -0.000023   0.000007  -0.000165
     4  H   -0.012130   0.002907  -0.000017  -0.004403  -0.000025  -0.000374
     5  N    0.004199  -0.027409   0.004881  -0.020472   0.000373  -0.001106
     6  C   -0.262733   0.033296  -0.000523  -0.212034  -0.000977  -0.020472
     7  C   -2.687365  -0.512354   0.185700   2.256916  -0.002966  -1.063462
     8  H    0.001009  -0.001824   0.000137   0.000488  -0.000034   0.000933
     9  H    0.021684  -0.019043  -0.000145   0.014261   0.000091  -0.000440
    10  H   -0.052105   0.022441   0.000242  -0.008819  -0.000182  -0.003287
    11  H    0.098996   0.007915   0.007729  -0.032617   0.000571  -0.039487
    12  C    0.541077   1.191867  -0.415263 -10.970623  -0.021919  -2.487984
    13  C   18.777889   0.065200   0.839258  -4.620548   0.021683  -1.019096
    14  H    0.065200   0.767723  -0.002579  -0.360914  -0.000717   0.068309
    15  O    0.839258  -0.002579   8.162582  -0.127602   0.091085  -0.114724
    16  C   -4.620548  -0.360914  -0.127602  23.007818  -0.081118  -0.033393
    17  H    0.021683  -0.000717   0.091085  -0.081118   0.265227  -0.018950
    18  C   -1.019096   0.068309  -0.114724  -0.033393  -0.018950  18.944057
    19  C   -3.561161  -0.295129  -0.204269  -1.338952   0.048193  -7.875277
    20  O   -0.176708  -0.002454   0.020659   0.188445   0.215851   0.284317
    21  C   -2.751334  -0.064085  -0.072354  -1.191702   0.045067  -2.930557
    22  C    2.296593   0.136102   0.004363  -2.060306   0.009020   2.800542
    23  H   -0.064425  -0.058726  -0.003891  -0.156703   0.002140  -0.152209
    24  H   -0.024990  -0.000966  -0.000601  -0.058477   0.000891  -0.102291
    25  C   -0.820327  -0.010450  -0.012479  -0.210854  -0.000014  -0.476648
    26  H    0.015397   0.004729   0.000606   0.108255   0.000354   0.091285
    27  F    0.002379  -0.000082  -0.000014   0.012969  -0.000119  -0.079366
              19         20         21         22         23         24
     1  C   -0.010511   0.000326  -0.000047  -0.000849   0.000182   0.000025
     2  H   -0.002677  -0.000051   0.000529  -0.001141   0.000656   0.000004
     3  H   -0.000406  -0.000007   0.000013  -0.000076   0.000159   0.000000
     4  H    0.000507   0.000009  -0.000127   0.000430  -0.000461   0.000000
     5  N    0.017463  -0.000083   0.001092   0.000568  -0.001549  -0.000012
     6  C   -0.012992   0.000180  -0.000615   0.017734  -0.007698   0.000020
     7  C   -0.011074   0.036052   0.174610  -0.736613   0.019518   0.001789
     8  H   -0.002923   0.000011   0.000124  -0.000120   0.000036   0.000001
     9  H    0.005026   0.000004   0.000245  -0.003337   0.003188   0.000003
    10  H   -0.006331  -0.000035  -0.000208  -0.002213  -0.009131  -0.000019
    11  H    0.026313   0.000219   0.001264  -0.002022  -0.000107  -0.000145
    12  C   -1.955231  -0.062340  -0.743277   0.943812  -0.259782  -0.006307
    13  C   -3.561161  -0.176708  -2.751334   2.296593  -0.064425  -0.024990
    14  H   -0.295129  -0.002454  -0.064085   0.136102  -0.058726  -0.000966
    15  O   -0.204269   0.020659  -0.072354   0.004363  -0.003891  -0.000601
    16  C   -1.338952   0.188445  -1.191702  -2.060306  -0.156703  -0.058477
    17  H    0.048193   0.215851   0.045067   0.009020   0.002140   0.000891
    18  C   -7.875277   0.284317  -2.930557   2.800542  -0.152209  -0.102291
    19  C   22.115420   0.009731   4.677688  -5.568168   1.065369   0.073471
    20  O    0.009731   8.188879  -0.329647  -0.005800  -0.000343  -0.017691
    21  C    4.677688  -0.329647  13.320247  -4.181583   0.217806   0.704935
    22  C   -5.568168  -0.005800  -4.181583  12.969515  -0.347111  -0.107560
    23  H    1.065369  -0.000343   0.217806  -0.347111   0.630640   0.004254
    24  H    0.073471  -0.017691   0.704935  -0.107560   0.004254   0.452711
    25  C    0.226891   0.008470  -0.168073  -0.153006   0.048676  -0.158490
    26  H   -0.180493   0.000262  -0.154400   0.613159  -0.031200  -0.002609
    27  F   -0.051385  -0.000394  -0.212935  -0.203342   0.001351  -0.019790
              25         26         27
     1  C   -0.000357   0.000060   0.000000
     2  H    0.000020  -0.000005   0.000000
     3  H   -0.000028   0.000002   0.000000
     4  H    0.000003   0.000007   0.000000
     5  N    0.000179  -0.000010   0.000000
     6  C   -0.000480  -0.000255   0.000005
     7  C   -0.079856  -0.001675   0.000292
     8  H    0.000052  -0.000023   0.000000
     9  H    0.000018  -0.000068   0.000000
    10  H   -0.000528   0.000255  -0.000001
    11  H    0.000285  -0.000142   0.000009
    12  C   -0.351513   0.000041   0.002124
    13  C   -0.820327   0.015397   0.002379
    14  H   -0.010450   0.004729  -0.000082
    15  O   -0.012479   0.000606  -0.000014
    16  C   -0.210854   0.108255   0.012969
    17  H   -0.000014   0.000354  -0.000119
    18  C   -0.476648   0.091285  -0.079366
    19  C    0.226891  -0.180493  -0.051385
    20  O    0.008470   0.000262  -0.000394
    21  C   -0.168073  -0.154400  -0.212935
    22  C   -0.153006   0.613159  -0.203342
    23  H    0.048676  -0.031200   0.001351
    24  H   -0.158490  -0.002609  -0.019790
    25  C    8.249722  -0.167723   0.606896
    26  H   -0.167723   0.479875  -0.023216
    27  F    0.606896  -0.023216   9.133290
 Mulliken charges:
               1
     1  C   -0.334425
     2  H    0.144404
     3  H    0.181960
     4  H    0.189050
     5  N    0.147900
     6  C   -0.439731
     7  C    0.090037
     8  H    0.176300
     9  H    0.217299
    10  H    0.184635
    11  H    0.233777
    12  C   -0.015200
    13  C   -0.579549
    14  H    0.079814
    15  O   -0.365340
    16  C    1.834961
    17  H    0.426129
    18  C    0.226525
    19  C   -1.189093
    20  O   -0.357862
    21  C   -0.342677
    22  C   -0.418590
    23  H    0.099359
    24  H    0.261843
    25  C   -0.530385
    26  H    0.247534
    27  F   -0.168673
 Sum of Mulliken charges =   0.00000
 Mulliken charges with hydrogens summed into heavy atoms:
               1
     1  C    0.180989
     5  N    0.147900
     6  C    0.138503
     7  C    0.323813
    12  C    0.064614
    13  C   -0.579549
    15  O   -0.365340
    16  C    1.834961
    18  C    0.226525
    19  C   -1.089734
    20  O    0.068267
    21  C   -0.080835
    22  C   -0.171057
    25  C   -0.530385
    27  F   -0.168673
 Electronic spatial extent (au):  <R**2>=         119101.2668
 Charge=              0.0000 electrons
 Dipole moment (field-independent basis, Debye):
    X=             -3.7717    Y=             -3.8238    Z=             -8.0737  Tot=              9.6970
 Quadrupole moment (field-independent basis, Debye-Ang):
   XX=           -100.8640   YY=             34.5877   ZZ=           -145.5002
   XY=             56.2446   XZ=            -23.2913   YZ=            117.4949
 Traceless Quadrupole moment (field-independent basis, Debye-Ang):
   XX=            -30.2719   YY=            105.1799   ZZ=            -74.9080
   XY=             56.2446   XZ=            -23.2913   YZ=            117.4949
 Octapole moment (field-independent basis, Debye-Ang**2):
  XXX=           -477.9757  YYY=           1337.8515  ZZZ=          -1669.3135  XYY=           -996.4725
  XXY=           1642.4158  XXZ=           -485.4879  XZZ=           -316.0644  YZZ=           2335.1687
  YYZ=          -2117.4708  XYZ=            365.2122
 Hexadecapole moment (field-independent basis, Debye-Ang**3):
 XXXX=          -2325.2601 YYYY=         -77058.0896 ZZZZ=         -19525.1587 XXXY=           7761.2270
 XXXZ=          -3082.4414 YYYX=          20141.4516 YYYZ=          44783.5220 ZZZX=          -4191.2031
 ZZZY=          27405.2671 XXYY=         -27330.7932 XXZZ=          -3536.8379 YYZZ=         -40403.5465
 XXYZ=           7963.1754 YYXZ=          -6775.5699 ZZXY=           5182.5054
 N-N= 9.347726236681D+02 E-N=-3.580041179420D+03  KE= 7.281716564805D+02
 Leave Link  601 at Thu Nov  2 22:06:12 2017, MaxMem=  3758096384 cpu:         0.2
 (Enter /share/apps/gaussian/g09_D01/g09/l9999.exe)
 1\1\GINC-NXV30\SP\RwB97XD TD-FC\6-311++G(d,p)\C11H12F1N1O2\BTX008\02-N
 ov-2017\0\\#p wb97xd 6-311++G** td=(nstates=4) nosymm\\Title\\0,1\C,0,
 -0.242207,-15.909153,-0.278636\H,0,-0.252468,-14.829358,-0.089876\H,0,
 -1.253355,-16.249934,-0.558167\H,0,0.432188,-16.127813,-1.125854\N,0,0
 .201487,-16.61409,0.916476\C,0,0.261517,-18.068873,0.81116\C,0,0.61709
 4,-15.954241,1.999155\H,0,-0.414204,-18.39745,0.007919\H,0,1.286833,-1
 8.40192,0.563623\H,0,-0.059815,-18.540733,1.749863\H,0,0.583439,-14.86
 3698,1.916064\C,0,1.093579,-16.501219,3.179705\C,0,1.582578,-15.657044
 ,4.219453\H,0,1.130357,-17.580937,3.30476\O,0,1.678535,-14.380108,4.06
 8086\C,0,2.014177,-16.217632,5.523728\H,0,2.344259,-13.947737,5.250035
 \C,0,2.633227,-15.343501,6.475186\C,0,1.798983,-17.554703,5.905478\O,0
 ,2.814705,-14.044646,6.198487\C,0,3.047574,-15.832084,7.726059\C,0,2.1
 8984,-18.047327,7.143848\H,0,1.269384,-18.232931,5.238097\H,0,3.534352
 ,-15.16623,8.441543\C,0,2.813744,-17.16,8.017382\H,0,1.969254,-19.0695
 16,7.451958\F,0,3.199892,-17.627191,9.253681\\Version=ES64L-G09RevD.01
 \HF=-731.3879127\RMSD=8.053e-09\PG=C01 [X(C11H12F1N1O2)]\\@


 ALL OUR THINKING ABOUT NATURE MUST NECESSARILY MOVE IN CIRCLES OR SPIRALS;
 FOR WE CAN ONLY UNDERSTAND NATURE IF WE THINK ABOUT HER, AND WE CAN ONLY
 THINK BECAUSE OUR BRAIN IS BUILT IN ACCORDANCE WITH NATURE'S LAWS.

                                             -- TIMOTHY FERRIS, "GALAXIES"
 Job cpu time:       0 days  1 hours  9 minutes 36.2 seconds.
 File lengths (MBytes):  RWF=    262 Int=      0 D2E=      0 Chk=     30 Scr=      1
 Normal termination of Gaussian 09 at Thu Nov  2 22:06:12 2017.
