
     Program PWSCF v.6.1 (svn rev. 13369) starts on 18Oct2017 at 14:10:44 

     This program is part of the open-source Quantum ESPRESSO suite
     for quantum simulation of materials; please cite
         "P. Giannozzi et al., J. Phys.:Condens. Matter 21 395502 (2009);
          URL http://www.quantum-espresso.org", 
     in publications or presentations arising from this work. More details at
     http://www.quantum-espresso.org/quote

     Parallel version (MPI), running on     1 processors
     Waiting for input...
     Reading input from standard input

     Current dimensions of program PWSCF are:
     Max number of different atomic species (ntypx) = 10
     Max number of k-points (npk) =  40000
     Max angular momentum in pseudopotentials (lmaxx) =  3
     Message from routine iosys:
     london is obsolete, use "vdw_corr='grimme-d2'" instead

     IMPORTANT: XC functional enforced from input :
     Exchange-correlation      = PBE ( 1  4  3  4 0 0)
     Any further DFT definition will be discarded
     Please, verify this is what you really want

               file C.pbe-rrkjus.UPF: wavefunction(s)  2S 2P renormalized
               file H.pbe-rrkjus.UPF: wavefunction(s)  1S renormalized
               file O.pbe-rrkjus.UPF: wavefunction(s)  2S renormalized
               file N.pbe-rrkjus.UPF: wavefunction(s)  2S renormalized

     -------------------------------------
     Parameters for Dispersion Correction:
     -------------------------------------
       atom      VdW radius       C_6     

        C          2.744         60.710
        H          1.892          4.857
        O          2.536         24.284
        N          2.640         42.670
        F          2.432         26.018

     Subspace diagonalization in iterative solution of the eigenvalue problem:
     a serial algorithm will be used

 
     G-vector sticks info
     --------------------
     sticks:   dense  smooth     PW     G-vecs:    dense   smooth      PW
     Sum        5811    5811   1549               309629   309629   42473
 


     bravais-lattice index     =            0
     lattice parameter (alat)  =      14.5573  a.u.
     unit-cell volume          =   13946.7717 (a.u.)^3
     number of atoms/cell      =          216
     number of atomic types    =            5
     number of electrons       =       640.00
     number of Kohn-Sham states=          320
     kinetic-energy cutoff     =      30.0000  Ry
     charge density cutoff     =     120.0000  Ry
     convergence threshold     =      1.0E-07
     mixing beta               =       0.7000
     number of iterations used =            8  plain     mixing
     Exchange-correlation      = PBE ( 1  4  3  4 0 0)
     nstep                     =           50


     celldm(1)=  14.557317  celldm(2)=   0.000000  celldm(3)=   0.000000
     celldm(4)=   0.000000  celldm(5)=   0.000000  celldm(6)=   0.000000

     crystal axes: (cart. coord. in units of alat)
               a(1) = (   1.000000   0.000000   0.000000 )  
               a(2) = (   0.000000   2.871329   0.000000 )  
               a(3) = (  -0.429852   0.000000   1.574515 )  

     reciprocal axes: (cart. coord. in units 2 pi/alat)
               b(1) = (  1.000000  0.000000  0.273006 )  
               b(2) = (  0.000000  0.348271  0.000000 )  
               b(3) = (  0.000000  0.000000  0.635116 )  


     PseudoPot. # 1 for C  read from file:
     /data/home/btx156/espresso/pseudo/C.pbe-rrkjus.UPF
     MD5 check sum: 00fb224312de0c5b6853bd333518df6f
     Pseudo is Ultrasoft, Zval =  4.0
     Generated by new atomic code, or converted to UPF format
     Using radial grid of  627 points,  4 beta functions with: 
                l(1) =   0
                l(2) =   0
                l(3) =   1
                l(4) =   1
     Q(r) pseudized with 0 coefficients 


     PseudoPot. # 2 for H  read from file:
     /data/home/btx156/espresso/pseudo/H.pbe-rrkjus.UPF
     MD5 check sum: 7cc9d459525c9a0585f487a71c3c9563
     Pseudo is Ultrasoft, Zval =  1.0
     Generated by new atomic code, or converted to UPF format
     Using radial grid of 1061 points,  2 beta functions with: 
                l(1) =   0
                l(2) =   0
     Q(r) pseudized with 0 coefficients 


     PseudoPot. # 3 for O  read from file:
     /data/home/btx156/espresso/pseudo/O.pbe-rrkjus.UPF
     MD5 check sum: 390ba29e75625707450f3bd3f0eb6be9
     Pseudo is Ultrasoft, Zval =  6.0
     Generated by new atomic code, or converted to UPF format
     Using radial grid of 1269 points,  4 beta functions with: 
                l(1) =   0
                l(2) =   0
                l(3) =   1
                l(4) =   1
     Q(r) pseudized with 0 coefficients 


     PseudoPot. # 4 for N  read from file:
     /data/home/btx156/espresso/pseudo/N.pbe-rrkjus.UPF
     MD5 check sum: 0c3fbe5807a93f9ba59d5a7019aa238b
     Pseudo is Ultrasoft, Zval =  5.0
     Generated by new atomic code, or converted to UPF format
     Using radial grid of 1257 points,  4 beta functions with: 
                l(1) =   0
                l(2) =   0
                l(3) =   1
                l(4) =   1
     Q(r) pseudized with 0 coefficients 


     PseudoPot. # 5 for  F read from file:
     /data/home/btx156/espresso/pseudo/F.pbe-n-rrkjus_psl.0.1.UPF
     MD5 check sum: 04c7599644978b7d0345d67c6032d20f
     Pseudo is Ultrasoft + core correction, Zval =  7.0
     Generated using "atomic" code by A. Dal Corso  v.5.0.2 svn rev. 9415
     Using radial grid of 1105 points,  4 beta functions with: 
                l(1) =   0
                l(2) =   0
                l(3) =   1
                l(4) =   1
     Q(r) pseudized with 0 coefficients 


     atomic species   valence    mass     pseudopotential
        C              4.00    12.00000     C ( 1.00)
        H              1.00     1.00790     H ( 1.00)
        O              6.00    15.99940     O ( 1.00)
        N              5.00    14.00670     N ( 1.00)
        F              7.00    18.99840      F( 1.00)

      4 Sym. Ops., with inversion, found ( 2 have fractional translation)



   Cartesian axes

     site n.     atom                  positions (alat units)
         1           C   tau(   1) = (   0.0354038   0.5301334   0.1069411  )
         2           H   tau(   2) = (   0.1532297   0.4947296   0.0870706  )
         3           H   tau(   3) = (   0.9642197   0.4930070   0.0116520  )
         4           H   tau(   4) = (  -0.0061298   0.4786510   0.2125594  )
         5           C   tau(   5) = (   0.5374056   0.8123283   1.5457330  )
         6           H   tau(   6) = (   0.5402510   0.9346172   1.5701054  )
         7           H   tau(   7) = (   0.4205779   0.7781304   1.5190915  )
         8           H   tau(   8) = (  -0.3888218   0.7876055   1.4483955  )
         9           C   tau(   9) = (   0.3850209   0.8094854   1.0050289  )
        10           H   tau(  10) = (   0.4378015   0.8812109   1.0864151  )
        11           C   tau(  11) = (   0.2802684   0.5253953   0.9242711  )
        12           H   tau(  12) = (   0.2628255   0.4091648   0.9522665  )
        13           C   tau(  13) = (   0.3328232   0.8746930   0.8445855  )
        14           F   tau(  14) = (   0.4068217   0.5760456   1.1967417  )
        15           C   tau(  15) = (   0.0835073   0.7987460   0.2625659  )
        16           H   tau(  16) = (   0.0839188   0.9193992   0.2574331  )
        17           C   tau(  17) = (   0.2305761   0.5915232   0.7656398  )
        18           H   tau(  18) = (   0.1779136   0.5177013   0.6860166  )
        19           N   tau(  19) = (   0.0277189   0.7170859   0.1213944  )
        20           C   tau(  20) = (   0.2038139   0.8375665   0.5486551  )
        21           C   tau(  21) = (   0.1402757   0.7272503   0.4140341  )
        22           H   tau(  22) = (   0.1376366   0.6075733   0.4295272  )
        23           O   tau(  23) = (   0.3579419   1.0435275   0.8140392  )
        24           H   tau(  24) = (   0.3280331   1.0664122   0.7145144  )
        25           O   tau(  25) = (   0.2192434   0.9989355   0.5265337  )
        26           C   tau(  26) = (   0.2560051   0.7644053   0.7198523  )
        27           C   tau(  27) = (   0.4108251   1.6747319   0.3511800  )
        28           H   tau(  28) = (   0.5049939   1.6863320   0.2703443  )
        29           H   tau(  29) = (   0.4462666   1.7176298   0.4627502  )
        30           H   tau(  30) = (   0.3129904   1.7403133   0.3106511  )
        31           C   tau(  31) = (   0.3933588   1.4115455   0.5327375  )
        32           H   tau(  32) = (   0.3525988   1.2938209   0.5285640  )
        33           H   tau(  33) = (   0.3318937   1.4735662   0.6216177  )
        34           H   tau(  34) = (   0.5153179   1.4124075   0.5581652  )
        35           C   tau(  35) = (   0.6565789   1.5260248   1.0055482  )
        36           C   tau(  36) = (  -0.2459265   1.5899992   1.2872446  )
        37           H   tau(  37) = (  -0.2049420   1.6696783   1.3682530  )
        38           C   tau(  38) = (  -0.2844575   1.6474258   1.1228964  )
        39           H   tau(  39) = (  -0.2712452   1.7632837   1.0920827  )
        40           C   tau(  40) = (   0.2997365   1.4066360   0.2325713  )
        41           H   tau(  41) = (   0.2726653   1.2906625   0.2528676  )
        42           C   tau(  42) = (   0.6315796   1.3565309   1.0447374  )
        43           H   tau(  43) = (   0.5897461   1.2794649   0.9617130  )
        44           C   tau(  44) = (  -0.3299958   1.3000805   1.2120453  )
        45           C   tau(  45) = (  -0.2658138   1.4173170   1.3374562  )
        46           N   tau(  46) = (   0.3632487   1.4944699   0.3658229  )
        47           C   tau(  47) = (  -0.2268816   1.3532570   1.5151712  )
        48           O   tau(  48) = (   0.6437015   1.1323376   1.2501493  )
        49           H   tau(  49) = (  -0.3372446   1.1160864   1.3536101  )
        50           F   tau(  50) = (   0.6185931   1.5816431   0.8423501  )
        51           O   tau(  51) = (  -0.2540164   1.1946738   1.5471649  )
        52           C   tau(  52) = (   0.3572358   0.6389283   1.0401407  )
        53           C   tau(  53) = (   0.2693759   1.4668471   0.0685853  )
        54           H   tau(  54) = (   0.2922385   1.5821027   0.0412519  )
        55           C   tau(  55) = (   0.7496690   1.9657982   0.6803165  )
        56           C   tau(  56) = (   0.5347431   2.3411961   1.4675740  )
        57           C   tau(  57) = (  -0.1795220   0.9055313   0.8941986  )
        58           H   tau(  58) = (   0.6318444   1.9303943   0.7001869  )
        59           H   tau(  59) = (   0.4169185   2.3765999   1.4874445  )
        60           H   tau(  60) = (  -0.0616974   0.9409352   0.8743282  )
        61           H   tau(  61) = (  -0.1791456   1.9286717   0.7756056  )
        62           H   tau(  62) = (  -0.3940714   2.3783225   1.5628631  )
        63           H   tau(  63) = (   0.7492925   0.9426578   0.7989083  )
        64           H   tau(  64) = (   0.7912039   1.9143157   0.5746982  )
        65           H   tau(  65) = (   0.5762780   2.3926785   1.3619557  )
        66           H   tau(  66) = (  -0.2210569   0.9570138   0.9998169  )
        67           C   tau(  67) = (  -0.1821845   2.2479931   0.8160397  )
        68           C   tau(  68) = (   0.0327427   2.0590012   0.0287821  )
        69           C   tau(  69) = (   0.7523314   0.6233364   0.7584755  )
        70           H   tau(  70) = (  -0.1850300   2.3702819   0.7916660  )
        71           H   tau(  71) = (   0.0298959   1.9367123   0.0044084  )
        72           H   tau(  72) = (   0.7551769   0.5010476   0.7828491  )
        73           H   tau(  73) = (  -0.0653569   2.2137952   0.8426798  )
        74           H   tau(  74) = (   0.1495690   2.0931991   0.0554223  )
        75           H   tau(  75) = (   0.6355051   0.6575343   0.7318340  )
        76           H   tau(  76) = (   0.7440429   2.2232702   0.9133759  )
        77           H   tau(  77) = (   0.9589688   2.0837240   0.1261183  )
        78           H   tau(  78) = (  -0.1738946   0.6480593   0.6611392  )
        79           C   tau(  79) = (  -0.0297998   2.2451502   1.3567438  )
        80           C   tau(  80) = (   0.1851260   2.0618441   0.5694862  )
        81           C   tau(  81) = (   0.5999468   0.6261793   0.2177714  )
        82           H   tau(  82) = (  -0.0825804   2.3168756   1.2753563  )
        83           H   tau(  83) = (   0.1323455   1.9901186   0.4881001  )
        84           H   tau(  84) = (   0.6527287   0.5544539   0.2991575  )
        85           C   tau(  85) = (   0.0749539   1.9610600   1.4375003  )
        86           C   tau(  86) = (   0.2898798   2.3459342   0.6502427  )
        87           C   tau(  87) = (   0.4951943   0.9102695   0.1370148  )
        88           H   tau(  88) = (   0.0923956   1.8448295   1.4095049  )
        89           H   tau(  89) = (   0.3073227   2.4621647   0.6222486  )
        90           H   tau(  90) = (   0.4777514   1.0265000   0.1650090  )
        91           C   tau(  91) = (   0.0223979   2.3103577   1.5171859  )
        92           C   tau(  92) = (   0.2373251   1.9966365   0.7299296  )
        93           C   tau(  93) = (   0.5477490   0.5609718   0.0573279  )
        94           F   tau(  94) = (  -0.0516006   2.0117104   1.1650310  )
        95           F   tau(  95) = (   0.1633253   2.2952839   0.3777734  )
        96           F   tau(  96) = (   0.6217488   0.8596191   0.4094841  )
        97           C   tau(  97) = (   0.7015655   2.2344107   0.5246917  )
        98           C   tau(  98) = (   0.4866397   2.0725835   1.3119479  )
        99           C   tau(  99) = (  -0.1314186   0.6369188   1.0498234  )
       100           H   tau( 100) = (   0.7011540   2.3550640   0.5298245  )
       101           H   tau( 101) = (   0.4862282   1.9519303   1.3170820  )
       102           H   tau( 102) = (  -0.1310071   0.5162655   1.0446906  )
       103           H   tau( 103) = (   0.4531791   0.0379014   0.1656385  )
       104           H   tau( 104) = (   0.2382532   1.3977633   0.9528961  )
       105           H   tau( 105) = (   0.1169678   2.8334280   1.4088753  )
       106           C   tau( 106) = (   0.5544980   2.0271880   0.0216177  )
       107           C   tau( 107) = (   0.3395721   2.2798063   0.8088753  )
       108           C   tau( 108) = (   0.0156489   0.8441415   1.5528961  )
       109           H   tau( 109) = (   0.6071605   1.9533660   0.1012410  )
       110           H   tau( 110) = (   0.3922346   2.3536282   0.8884986  )
       111           H   tau( 111) = (  -0.0370135   0.9179635   1.4732728  )
       112           N   tau( 112) = (   0.7573552   2.1527507   0.6658618  )
       113           N   tau( 113) = (   0.5424293   2.1542435   1.4531194  )
       114           N   tau( 114) = (  -0.1872082   0.7185788   0.9086520  )
       115           C   tau( 115) = (   0.5812602   2.2732313   0.2386024  )
       116           C   tau( 116) = (   0.3663343   2.0337630   1.0258587  )
       117           C   tau( 117) = (  -0.0111133   0.5980982   1.3359127  )
       118           C   tau( 118) = (   0.6447984   2.1629150   0.3732235  )
       119           C   tau( 119) = (   0.4298712   2.1440792   1.1604798  )
       120           C   tau( 120) = (  -0.0746502   0.7084145   1.2012916  )
       121           H   tau( 121) = (   0.6474375   2.0432380   0.3577303  )
       122           H   tau( 122) = (   0.4325116   2.2637562   1.1449866  )
       123           H   tau( 123) = (  -0.0772905   0.8280915   1.2167848  )
       124           O   tau( 124) = (  -0.0027209   2.4791923   1.5477321  )
       125           O   tau( 125) = (   0.2122050   1.8278020   0.7604746  )
       126           O   tau( 126) = (   0.5728678   0.3921372   0.0267830  )
       127           H   tau( 127) = (   0.4570410   2.5020770   0.0727432  )
       128           H   tau( 128) = (   0.2421152   1.8049173   0.8599995  )
       129           H   tau( 129) = (   0.1131072   0.3692525   1.5017719  )
       130           O   tau( 130) = (   0.5658307   2.4346003   0.2607238  )
       131           O   tau( 131) = (   0.3509048   1.8723940   1.0479814  )
       132           O   tau( 132) = (   0.0043163   0.4367292   1.3137913  )
       133           C   tau( 133) = (   0.5290677   2.2000701   0.0674053  )
       134           C   tau( 134) = (   0.3141418   2.1069242   0.8546629  )
       135           C   tau( 135) = (   0.0410793   0.6712594   1.5071098  )
       136           C   tau( 136) = (   0.3742477   0.2390672   0.4360776  )
       137           C   tau( 137) = (   0.1593219   1.1965976   1.2233351  )
       138           C   tau( 138) = (   0.1958992   2.6322623   1.1384376  )
       139           H   tau( 139) = (   0.2800789   0.2506672   0.5169133  )
       140           H   tau( 140) = (   0.0651530   1.1849975   1.3041709  )
       141           H   tau( 141) = (   0.2900680   2.6206623   1.0576018  )
       142           H   tau( 142) = (   0.3388075   0.2819651   0.3245074  )
       143           H   tau( 143) = (   0.1238817   1.1536996   1.1117649  )
       144           H   tau( 144) = (   0.2313407   2.5893644   1.2500078  )
       145           H   tau( 145) = (   0.4720837   0.3046486   0.4766051  )
       146           H   tau( 146) = (   0.2571579   1.1310162   1.2638627  )
       147           H   tau( 147) = (   0.0980645   2.5666809   1.0979087  )
       148           C   tau( 148) = (   0.3917140   2.8472103   0.2545201  )
       149           C   tau( 149) = (   0.1767882   1.4597840   1.0417776  )
       150           C   tau( 150) = (   0.1784329   0.0241192   1.3199937  )
       151           H   tau( 151) = (   0.4324753   2.7294856   0.2586923  )
       152           H   tau( 152) = (   0.2175494   1.5775086   1.0459498  )
       153           H   tau( 153) = (   0.1376717   0.1418439   1.3158216  )
       154           H   tau( 154) = (   0.2697562   2.8480722   0.2290923  )
       155           H   tau( 155) = (   0.0548303   1.4589220   1.0163486  )
       156           H   tau( 156) = (   0.3003907   0.0232573   1.3454228  )
       157           C   tau( 157) = (  -0.3013578   0.0903601   1.3562245  )
       158           C   tau( 158) = (  -0.0864320   1.3453046   0.5689669  )
       159           C   tau( 159) = (   0.8715048   2.7809694   0.2182906  )
       160           C   tau( 160) = (   0.6011475   0.1543344   1.0745281  )
       161           C   tau( 161) = (   0.8160734   1.2813303   0.2872706  )
       162           C   tau( 162) = (  -0.0309993   2.7169950   0.4999870  )
       163           H   tau( 163) = (   0.5601630   0.2340135   0.9935184  )
       164           H   tau( 164) = (   0.7750889   1.2016512   0.2062609  )
       165           H   tau( 165) = (   0.0099839   2.6373159   0.5809954  )
       166           C   tau( 166) = (   0.6396786   0.2117610   1.2388750  )
       167           C   tau( 167) = (   0.8546057   1.2239037   0.4516175  )
       168           C   tau( 168) = (  -0.0695316   2.6595685   0.3356388  )
       169           H   tau( 169) = (   0.6264675   0.3276190   1.2696887  )
       170           H   tau( 170) = (   0.8413934   1.1080458   0.4824311  )
       171           H   tau( 171) = (  -0.0563193   2.5437105   0.3048264  )
       172           C   tau( 172) = (   0.4853376   2.8423008   0.5546862  )
       173           C   tau( 173) = (   0.2704105   1.4646935   1.3419425  )
       174           C   tau( 174) = (   0.0848106   0.0290287   1.0198289  )
       175           H   tau( 175) = (   0.5124075   2.7263273   0.5343900  )
       176           H   tau( 176) = (   0.2974816   1.5806670   1.3216476  )
       177           H   tau( 177) = (   0.0577394   0.1450022   1.0401238  )
       178           C   tau( 178) = (  -0.2763585   2.7921956   1.3170340  )
       179           C   tau( 179) = (  -0.0614326   1.5147986   0.5297765  )
       180           C   tau( 180) = (   0.8465067   0.0791339   0.2574798  )
       181           H   tau( 181) = (  -0.2345250   2.7151296   1.4000584  )
       182           H   tau( 182) = (  -0.0195991   1.5918646   0.6128008  )
       183           H   tau( 183) = (   0.8046719   0.1561999   0.1744567  )
       184           C   tau( 184) = (   0.6852169   2.7357452   1.1497261  )
       185           C   tau( 185) = (   0.9001441   1.5712490   0.3624685  )
       186           C   tau( 186) = (  -0.1150700   0.1355843   0.4247877  )
       187           C   tau( 187) = (   0.6210349   2.8529818   1.0243165  )
       188           C   tau( 188) = (   0.8359620   1.4540125   0.2370590  )
       189           C   tau( 189) = (  -0.0508879   0.0183477   0.5501986  )
       190           N   tau( 190) = (   0.4218254   0.0588052   0.4214347  )
       191           N   tau( 191) = (   0.2068995   1.3768595   1.2086922  )
       192           N   tau( 192) = (   0.1483215   2.8125243   1.1530804  )
       193           C   tau( 193) = (   0.5821027   2.7889217   0.8466002  )
       194           C   tau( 194) = (   0.7970286   1.5180725   0.0593439  )
       195           C   tau( 195) = (  -0.0119545   0.0824078   0.7279136  )
       196           O   tau( 196) = (  -0.2884804   2.5680024   1.1116234  )
       197           O   tau( 197) = (  -0.0735545   1.7389918   0.3243659  )
       198           O   tau( 198) = (   0.8586273   0.3033271   0.4628917  )
       199           H   tau( 199) = (   0.6924657   2.5517511   1.0081613  )
       200           H   tau( 200) = (   0.9073915   1.7552431   0.2209038  )
       201           H   tau( 201) = (  -0.1223174   0.3195784   0.5663525  )
       202           F   tau( 202) = (  -0.2633720   0.1459784   1.5194226  )
       203           F   tau( 203) = (  -0.0484461   1.2896863   0.7321650  )
       204           F   tau( 204) = (   0.8335190   2.7253511   0.0550926  )
       205           O   tau( 205) = (   0.6092375   2.6303385   0.8146065  )
       206           O   tau( 206) = (   0.8241633   1.6766557   0.0273490  )
       207           O   tau( 207) = (  -0.0390892   0.2409910   0.7599086  )
       208           C   tau( 208) = (  -0.0020134   2.0745930   1.3216320  )
       209           C   tau( 209) = (   0.2129125   2.2324012   0.5343744  )
       210           C   tau( 210) = (   0.5721616   0.7967365   0.2528831  )
       211           C   tau( 211) = (   0.5156983   0.0311823   0.7186710  )
       212           C   tau( 212) = (   0.3007724   1.4044824   1.5059285  )
       213           C   tau( 213) = (   0.0544500   2.8401472   0.8558429  )
       214           H   tau( 214) = (   0.4928356   0.1464379   0.7460056  )
       215           H   tau( 215) = (   0.2779097   1.2892268   1.5332619  )
       216           H   tau( 216) = (   0.0773113   2.7248916   0.8285095  )

     number of k points=     4
                       cart. coord. in units 2pi/alat
        k(    1) = (   0.0000000   0.0000000   0.0000000), wk =   0.3333333
        k(    2) = (   0.0000000   0.0000000  -0.3175582), wk =   0.3333333
        k(    3) = (   0.3333333   0.0000000   0.0910021), wk =   0.6666667
        k(    4) = (   0.3333333   0.0000000  -0.2265561), wk =   0.6666667

     Dense  grid:   309629 G-vectors     FFT dimensions: (  54, 150,  90)

     Estimated max dynamical RAM per process >    3385.33MB

     Check: negative/imaginary core charge=   -0.000675    0.000000

     Initial potential from superposition of free atoms

     starting charge  630.75967, renormalised to  640.00000
     Starting wfc are  576 randomized atomic wfcs

     total cpu time spent up to now is      583.1 secs

     per-process dynamical memory:  1892.3 Mb

     Self-consistent Calculation

     iteration #  1     ecut=    30.00 Ry     beta=0.70
     Davidson diagonalization with overlap
     ethr =  1.00E-02,  avg # of iterations =  2.0

     total cpu time spent up to now is     1761.1 secs

     total energy              =   -2162.40531152 Ry
     Harris-Foulkes estimate   =   -2203.44988641 Ry
     estimated scf accuracy    <      58.34311621 Ry

     iteration #  2     ecut=    30.00 Ry     beta=0.70
     Davidson diagonalization with overlap
     ethr =  9.12E-03,  avg # of iterations =  4.0

     total cpu time spent up to now is     2709.5 secs

     total energy              =   -2170.24177316 Ry
     Harris-Foulkes estimate   =   -2187.57611609 Ry
     estimated scf accuracy    <      30.96691350 Ry

     iteration #  3     ecut=    30.00 Ry     beta=0.70
     Davidson diagonalization with overlap
     ethr =  4.84E-03,  avg # of iterations =  4.0

     negative rho (up, down):  7.031E-06 0.000E+00

     total cpu time spent up to now is     3574.5 secs

     total energy              =   -2177.70020392 Ry
     Harris-Foulkes estimate   =   -2180.78373927 Ry
     estimated scf accuracy    <       6.15277744 Ry

     iteration #  4     ecut=    30.00 Ry     beta=0.70
     Davidson diagonalization with overlap
     ethr =  9.61E-04,  avg # of iterations =  4.0

     negative rho (up, down):  1.971E-05 0.000E+00

     total cpu time spent up to now is     4363.8 secs

     total energy              =   -2178.96734847 Ry
     Harris-Foulkes estimate   =   -2179.55121464 Ry
     estimated scf accuracy    <       1.23247570 Ry

     iteration #  5     ecut=    30.00 Ry     beta=0.70
     Davidson diagonalization with overlap
     ethr =  1.93E-04,  avg # of iterations =  4.0

     negative rho (up, down):  4.094E-05 0.000E+00

     total cpu time spent up to now is     5119.4 secs

     total energy              =   -2179.21636467 Ry
     Harris-Foulkes estimate   =   -2179.26975812 Ry
     estimated scf accuracy    <       0.10429558 Ry

     iteration #  6     ecut=    30.00 Ry     beta=0.70
     Davidson diagonalization with overlap
     ethr =  1.63E-05,  avg # of iterations =  5.0

     negative rho (up, down):  4.969E-05 0.000E+00

     total cpu time spent up to now is     5971.4 secs

     total energy              =   -2179.24125165 Ry
     Harris-Foulkes estimate   =   -2179.25420181 Ry
     estimated scf accuracy    <       0.02840815 Ry

     iteration #  7     ecut=    30.00 Ry     beta=0.70
     Davidson diagonalization with overlap
     ethr =  4.44E-06,  avg # of iterations =  4.0

     negative rho (up, down):  5.568E-05 0.000E+00

     total cpu time spent up to now is     6721.3 secs

     total energy              =   -2179.24678894 Ry
     Harris-Foulkes estimate   =   -2179.24901259 Ry
     estimated scf accuracy    <       0.00491915 Ry

     iteration #  8     ecut=    30.00 Ry     beta=0.70
     Davidson diagonalization with overlap
     ethr =  7.69E-07,  avg # of iterations =  4.2

     negative rho (up, down):  5.848E-05 0.000E+00

     total cpu time spent up to now is     7511.0 secs

     total energy              =   -2179.24773777 Ry
     Harris-Foulkes estimate   =   -2179.24824927 Ry
     estimated scf accuracy    <       0.00111800 Ry

     iteration #  9     ecut=    30.00 Ry     beta=0.70
     Davidson diagonalization with overlap
     ethr =  1.75E-07,  avg # of iterations =  4.0

     negative rho (up, down):  5.991E-05 0.000E+00

     total cpu time spent up to now is     8270.8 secs

     total energy              =   -2179.24798091 Ry
     Harris-Foulkes estimate   =   -2179.24808988 Ry
     estimated scf accuracy    <       0.00026271 Ry

     iteration # 10     ecut=    30.00 Ry     beta=0.70
     Davidson diagonalization with overlap
     ethr =  4.10E-08,  avg # of iterations =  4.0

     negative rho (up, down):  6.031E-05 0.000E+00

     total cpu time spent up to now is     9004.8 secs

     total energy              =   -2179.24803128 Ry
     Harris-Foulkes estimate   =   -2179.24803926 Ry
     estimated scf accuracy    <       0.00001633 Ry

     iteration # 11     ecut=    30.00 Ry     beta=0.70
     Davidson diagonalization with overlap
     ethr =  2.55E-09,  avg # of iterations =  4.0

     negative rho (up, down):  6.045E-05 0.000E+00

     total cpu time spent up to now is     9842.8 secs

     total energy              =   -2179.24803525 Ry
     Harris-Foulkes estimate   =   -2179.24803616 Ry
     estimated scf accuracy    <       0.00000183 Ry

     iteration # 12     ecut=    30.00 Ry     beta=0.70
     Davidson diagonalization with overlap
     ethr =  2.86E-10,  avg # of iterations =  4.0

     negative rho (up, down):  6.048E-05 0.000E+00

     total cpu time spent up to now is    10680.3 secs

     total energy              =   -2179.24803569 Ry
     Harris-Foulkes estimate   =   -2179.24803586 Ry
     estimated scf accuracy    <       0.00000041 Ry

     iteration # 13     ecut=    30.00 Ry     beta=0.70
     Davidson diagonalization with overlap
     ethr =  6.38E-11,  avg # of iterations =  4.0

     negative rho (up, down):  6.049E-05 0.000E+00

     total cpu time spent up to now is    11429.9 secs

     End of self-consistent calculation

          k = 0.0000 0.0000 0.0000 ( 38709 PWs)   bands (ev):

   -24.9863 -24.9862 -24.9861 -24.9860 -24.8640 -24.8639 -24.8488 -24.8487
   -21.7296 -21.7295 -21.7294 -21.7294 -21.6710 -21.6708 -21.6701 -21.6700
   -19.1002 -19.1002 -19.0988 -19.0988 -19.0474 -19.0473 -19.0284 -19.0284
   -18.3406 -18.3403 -18.3399 -18.3397 -18.3199 -18.3196 -18.3196 -18.3194
   -15.6799 -15.6798 -15.6797 -15.6795 -15.6469 -15.6468 -15.6405 -15.6401
   -13.6795 -13.6765 -13.6541 -13.6506 -13.6387 -13.6383 -13.5967 -13.5965
   -13.2851 -13.2763 -13.2501 -13.2476 -13.2284 -13.2136 -13.1994 -13.1986
   -12.9912 -12.9790 -12.9664 -12.9602 -12.9440 -12.9408 -12.9388 -12.9352
   -12.8814 -12.8773 -12.8519 -12.8386 -12.8326 -12.8186 -12.8097 -12.8092
   -11.5356 -11.5222 -11.5208 -11.5076 -11.4892 -11.4887 -11.4842 -11.4822
   -10.3502 -10.3435 -10.3426 -10.3248 -10.2863 -10.2710 -10.2667 -10.2549
    -9.9604  -9.9496  -9.9432  -9.9362  -9.8938  -9.8848  -9.8805  -9.8539
    -9.2710  -9.2531  -9.2156  -9.1871  -9.1682  -9.1328  -9.1259  -9.1036
    -8.3716  -8.3620  -8.3558  -8.3413  -8.3071  -8.2988  -8.2891  -8.2798
    -7.7757  -7.7721  -7.7573  -7.7420  -7.6848  -7.6842  -7.6811  -7.6771
    -7.4700  -7.4558  -7.4553  -7.4528  -7.4337  -7.4255  -7.4003  -7.3766
    -6.9257  -6.9031  -6.8869  -6.8669  -6.8476  -6.8308  -6.8213  -6.8109
    -6.4304  -6.4166  -6.4134  -6.4037  -6.3950  -6.3814  -6.3579  -6.3472
    -6.3470  -6.3232  -6.2706  -6.2634  -6.2590  -6.2492  -6.2429  -6.2428
    -6.1265  -6.1002  -6.0610  -6.0357  -6.0304  -6.0214  -5.9949  -5.9742
    -5.5804  -5.5785  -5.5693  -5.5682  -5.5188  -5.5159  -5.5037  -5.4924
    -5.4465  -5.4451  -5.4166  -5.4133  -5.4014  -5.4004  -5.2648  -5.2587
    -5.2557  -5.2519  -5.2282  -5.2195  -5.2119  -5.2090  -5.1871  -5.1870
    -4.7815  -4.7795  -4.7167  -4.7083  -4.7018  -4.6776  -4.6713  -4.6709
    -4.6309  -4.6209  -4.6163  -4.5927  -4.5836  -4.5817  -4.5563  -4.5338
    -4.5118  -4.5117  -4.4870  -4.4827  -4.4525  -4.4378  -4.4216  -4.4138
    -4.4061  -4.3761  -4.3491  -4.3265  -4.3077  -4.2816  -4.2771  -4.2436
    -4.1531  -4.1494  -4.1301  -4.1188  -4.0575  -4.0286  -4.0222  -4.0210
    -4.0199  -3.9771  -3.9549  -3.9518  -3.9461  -3.9318  -3.9052  -3.9009
    -3.8994  -3.8495  -3.8427  -3.8226  -3.6510  -3.6420  -3.6354  -3.5971
    -3.3415  -3.3342  -3.2458  -3.2407  -3.2123  -3.2075  -3.1400  -3.1367
    -3.1253  -3.1251  -3.0998  -3.0878  -3.0568  -3.0558  -3.0088  -2.9978
    -2.9658  -2.9655  -2.9444  -2.9160  -2.8887  -2.8787  -2.8638  -2.8606
    -2.5635  -2.5476  -2.5174  -2.5129  -2.4136  -2.4003  -2.3910  -2.3857
    -2.3283  -2.2927  -2.2730  -2.2652  -2.2032  -2.2006  -2.1164  -2.1157
    -1.8148  -1.8145  -1.7932  -1.7854  -1.7349  -1.7310  -1.6949  -1.6933
    -0.4343  -0.4317  -0.4315  -0.4243  -0.3849  -0.3830  -0.2316  -0.2280
     0.1862   0.1897   0.2231   0.2368   0.2754   0.2892   0.3160   0.3338
     0.5151   0.5298   0.5383   0.5440   0.5596   0.5706   0.5706   0.5800
     0.9821   0.9870   1.0457   1.0478   1.1301   1.1366   1.1541   1.1571

          k = 0.0000 0.0000-0.3176 ( 38746 PWs)   bands (ev):

   -24.9863 -24.9862 -24.9861 -24.9861 -24.8640 -24.8639 -24.8488 -24.8487
   -21.7296 -21.7295 -21.7295 -21.7294 -21.6710 -21.6708 -21.6701 -21.6700
   -19.0996 -19.0996 -19.0994 -19.0994 -19.0473 -19.0473 -19.0285 -19.0284
   -18.3411 -18.3410 -18.3393 -18.3392 -18.3198 -18.3196 -18.3196 -18.3194
   -15.6799 -15.6798 -15.6795 -15.6794 -15.6460 -15.6460 -15.6408 -15.6408
   -13.6643 -13.6643 -13.6610 -13.6609 -13.6562 -13.6562 -13.6041 -13.6040
   -13.2664 -13.2663 -13.2660 -13.2659 -13.2174 -13.2173 -13.2043 -13.2043
   -12.9809 -12.9809 -12.9764 -12.9764 -12.9413 -12.9411 -12.9332 -12.9331
   -12.8541 -12.8541 -12.8474 -12.8474 -12.8123 -12.8123 -12.7846 -12.7846
   -11.5379 -11.5378 -11.5253 -11.5253 -11.5154 -11.5154 -11.5119 -11.5118
   -10.3394 -10.3394 -10.3241 -10.3240 -10.2689 -10.2689 -10.2504 -10.2504
    -9.9558  -9.9558  -9.9373  -9.9373  -9.8880  -9.8880  -9.8665  -9.8665
    -9.2233  -9.2233  -9.2109  -9.2109  -9.1218  -9.1218  -9.1147  -9.1147
    -8.3766  -8.3766  -8.3593  -8.3592  -8.3046  -8.3046  -8.2865  -8.2865
    -7.8004  -7.8003  -7.7819  -7.7819  -7.7357  -7.7356  -7.7177  -7.7176
    -7.4639  -7.4639  -7.4261  -7.4261  -7.3938  -7.3937  -7.3546  -7.3546
    -6.9324  -6.9324  -6.9127  -6.9127  -6.8635  -6.8634  -6.8294  -6.8293
    -6.4110  -6.4109  -6.3873  -6.3873  -6.3366  -6.3366  -6.3200  -6.3199
    -6.2959  -6.2959  -6.2761  -6.2760  -6.2431  -6.2430  -6.2284  -6.2283
    -6.0920  -6.0920  -6.0854  -6.0854  -6.0288  -6.0288  -6.0075  -6.0074
    -5.5384  -5.5384  -5.5312  -5.5312  -5.5163  -5.5163  -5.4852  -5.4852
    -5.4613  -5.4612  -5.4048  -5.4048  -5.3969  -5.3968  -5.2892  -5.2892
    -5.2799  -5.2798  -5.2635  -5.2634  -5.2253  -5.2252  -5.1848  -5.1847
    -4.7525  -4.7524  -4.7198  -4.7197  -4.7102  -4.7102  -4.6686  -4.6685
    -4.6329  -4.6329  -4.6009  -4.6008  -4.5871  -4.5871  -4.5298  -4.5298
    -4.5198  -4.5197  -4.4699  -4.4699  -4.4587  -4.4587  -4.3965  -4.3965
    -4.3737  -4.3737  -4.3717  -4.3717  -4.3107  -4.3107  -4.2492  -4.2492
    -4.1652  -4.1652  -4.1396  -4.1396  -4.0410  -4.0409  -4.0106  -4.0106
    -3.9852  -3.9852  -3.9686  -3.9686  -3.9342  -3.9342  -3.9212  -3.9211
    -3.8640  -3.8640  -3.8502  -3.8502  -3.6550  -3.6550  -3.6216  -3.6216
    -3.3488  -3.3488  -3.2343  -3.2342  -3.2289  -3.2288  -3.1643  -3.1642
    -3.1382  -3.1381  -3.0700  -3.0699  -3.0378  -3.0378  -3.0013  -3.0013
    -2.9222  -2.9221  -2.9056  -2.9056  -2.8808  -2.8808  -2.8669  -2.8668
    -2.5728  -2.5727  -2.5482  -2.5482  -2.3986  -2.3986  -2.3579  -2.3578
    -2.2882  -2.2882  -2.2649  -2.2649  -2.2516  -2.2516  -2.1614  -2.1614
    -1.7880  -1.7879  -1.7332  -1.7331  -1.7299  -1.7298  -1.7176  -1.7175
    -0.4106  -0.4106  -0.4082  -0.4082  -0.3284  -0.3283  -0.3236  -0.3236
     0.2167   0.2167   0.2246   0.2246   0.2970   0.2970   0.3031   0.3031
     0.5355   0.5355   0.5533   0.5534   0.5564   0.5565   0.5610   0.5611
     1.0434   1.0435   1.0524   1.0524   1.0645   1.0645   1.1320   1.1321

          k = 0.3333 0.0000 0.0910 ( 38707 PWs)   bands (ev):

   -24.9863 -24.9862 -24.9861 -24.9861 -24.8640 -24.8638 -24.8488 -24.8487
   -21.7295 -21.7295 -21.7294 -21.7294 -21.6709 -21.6708 -21.6701 -21.6700
   -19.1005 -19.1004 -19.0987 -19.0986 -19.0450 -19.0450 -19.0308 -19.0307
   -18.3407 -18.3404 -18.3396 -18.3394 -18.3196 -18.3194 -18.3192 -18.3190
   -15.6821 -15.6819 -15.6808 -15.6806 -15.6473 -15.6470 -15.6416 -15.6415
   -13.6887 -13.6871 -13.6445 -13.6429 -13.6304 -13.6294 -13.6155 -13.6150
   -13.2673 -13.2623 -13.2612 -13.2594 -13.2259 -13.2221 -13.2004 -13.1950
   -12.9930 -12.9820 -12.9644 -12.9614 -12.9410 -12.9375 -12.9367 -12.9321
   -12.8760 -12.8685 -12.8511 -12.8430 -12.8147 -12.8064 -12.7994 -12.7984
   -11.5488 -11.5423 -11.5329 -11.5243 -11.5121 -11.5097 -11.4916 -11.4873
   -10.3472 -10.3342 -10.3262 -10.3243 -10.2758 -10.2674 -10.2551 -10.2513
    -9.9627  -9.9472  -9.9396  -9.9337  -9.8947  -9.8794  -9.8706  -9.8649
    -9.2504  -9.2410  -9.2008  -9.1808  -9.1548  -9.1293  -9.1192  -9.0996
    -8.3800  -8.3708  -8.3601  -8.3539  -8.3180  -8.2933  -8.2893  -8.2802
    -7.7940  -7.7898  -7.7884  -7.7674  -7.7331  -7.7177  -7.7044  -7.7037
    -7.4681  -7.4584  -7.4528  -7.4267  -7.3950  -7.3901  -7.3676  -7.3636
    -6.9343  -6.9285  -6.9045  -6.9015  -6.8562  -6.8449  -6.8367  -6.8221
    -6.4067  -6.4042  -6.3960  -6.3831  -6.3319  -6.3313  -6.3257  -6.3089
    -6.2563  -6.2425  -6.2207  -6.2090  -6.1921  -6.1913  -6.1836  -6.1828
    -6.1031  -6.0912  -6.0793  -6.0548  -6.0403  -6.0148  -6.0091  -5.9958
    -5.5597  -5.5581  -5.5527  -5.5522  -5.5306  -5.5206  -5.5156  -5.4934
    -5.4839  -5.4610  -5.4546  -5.4409  -5.4116  -5.4055  -5.3055  -5.2979
    -5.2908  -5.2859  -5.2662  -5.2507  -5.2186  -5.2115  -5.1877  -5.1839
    -4.7802  -4.7675  -4.7559  -4.7215  -4.7173  -4.6782  -4.6613  -4.6555
    -4.6476  -4.6334  -4.6197  -4.5956  -4.5800  -4.5751  -4.5665  -4.5466
    -4.5242  -4.5100  -4.5065  -4.4935  -4.4672  -4.4430  -4.4399  -4.4399
    -4.4221  -4.3842  -4.3561  -4.3428  -4.3388  -4.3220  -4.3192  -4.2635
    -4.1905  -4.1549  -4.1421  -4.1296  -4.0735  -4.0359  -4.0248  -3.9847
    -3.9833  -3.9762  -3.9674  -3.9523  -3.9467  -3.9357  -3.9281  -3.9069
    -3.8839  -3.8526  -3.8425  -3.8281  -3.6561  -3.6550  -3.6262  -3.5977
    -3.2907  -3.2824  -3.2743  -3.2678  -3.2170  -3.2062  -3.1640  -3.1602
    -3.1539  -3.1341  -3.0880  -3.0768  -3.0654  -3.0573  -3.0359  -3.0357
    -2.9413  -2.9315  -2.9210  -2.9099  -2.8818  -2.8773  -2.8649  -2.8595
    -2.5711  -2.5639  -2.5498  -2.5487  -2.4323  -2.3882  -2.3750  -2.3638
    -2.3588  -2.3344  -2.2935  -2.2859  -2.2319  -2.2201  -2.1282  -2.1258
    -1.7836  -1.7831  -1.7620  -1.7550  -1.7352  -1.7314  -1.6668  -1.6666
    -0.4317  -0.4313  -0.4215  -0.4167  -0.3897  -0.3884  -0.2200  -0.2187
     0.1906   0.1985   0.2428   0.2514   0.2571   0.2860   0.3019   0.3219
     0.5238   0.5316   0.5423   0.5505   0.5575   0.5586   0.5631   0.5704
     0.9142   0.9158   0.9800   0.9836   1.1841   1.1850   1.2828   1.2843

          k = 0.3333 0.0000-0.2266 ( 38721 PWs)   bands (ev):

   -24.9863 -24.9862 -24.9861 -24.9861 -24.8639 -24.8638 -24.8489 -24.8487
   -21.7295 -21.7295 -21.7294 -21.7294 -21.6710 -21.6708 -21.6701 -21.6700
   -19.0997 -19.0996 -19.0994 -19.0994 -19.0450 -19.0450 -19.0308 -19.0307
   -18.3412 -18.3411 -18.3389 -18.3389 -18.3196 -18.3194 -18.3193 -18.3190
   -15.6818 -15.6817 -15.6811 -15.6809 -15.6476 -15.6474 -15.6416 -15.6413
   -13.6644 -13.6634 -13.6554 -13.6523 -13.6411 -13.6378 -13.6129 -13.6122
   -13.2713 -13.2680 -13.2558 -13.2521 -13.2190 -13.2143 -13.2041 -13.2021
   -12.9774 -12.9754 -12.9747 -12.9714 -12.9419 -12.9372 -12.9362 -12.9329
   -12.8693 -12.8650 -12.8639 -12.8554 -12.8231 -12.8185 -12.8099 -12.8073
   -11.5250 -11.5194 -11.5168 -11.5146 -11.5089 -11.5018 -11.4961 -11.4919
   -10.3527 -10.3400 -10.3320 -10.3249 -10.2786 -10.2742 -10.2590 -10.2576
    -9.9622  -9.9467  -9.9378  -9.9378  -9.8875  -9.8866  -9.8768  -9.8619
    -9.2385  -9.2365  -9.2321  -9.2214  -9.1486  -9.1474  -9.1049  -9.1031
    -8.3756  -8.3655  -8.3518  -8.3486  -8.3069  -8.2999  -8.2861  -8.2838
    -7.7776  -7.7734  -7.7666  -7.7643  -7.7086  -7.7054  -7.6819  -7.6797
    -7.4666  -7.4665  -7.4558  -7.4295  -7.4142  -7.4098  -7.3946  -7.3827
    -6.9279  -6.9153  -6.8888  -6.8830  -6.8500  -6.8356  -6.8315  -6.8047
    -6.4061  -6.4037  -6.4028  -6.3900  -6.3698  -6.3503  -6.3468  -6.3374
    -6.2412  -6.2406  -6.2257  -6.2255  -6.2089  -6.2053  -6.1997  -6.1951
    -6.1068  -6.0719  -6.0695  -6.0569  -6.0271  -6.0244  -6.0085  -5.9836
    -5.5733  -5.5690  -5.5551  -5.5516  -5.5310  -5.5173  -5.5163  -5.5076
    -5.4794  -5.4756  -5.4430  -5.4416  -5.4411  -5.4309  -5.2867  -5.2809
    -5.2717  -5.2706  -5.2651  -5.2490  -5.2079  -5.2056  -5.2014  -5.2005
    -4.7383  -4.7292  -4.7256  -4.7198  -4.7197  -4.7030  -4.6764  -4.6602
    -4.6502  -4.6430  -4.5868  -4.5837  -4.5808  -4.5649  -4.5484  -4.5402
    -4.5370  -4.5180  -4.5052  -4.4830  -4.4799  -4.4597  -4.4557  -4.4381
    -4.4170  -4.4106  -4.3691  -4.3543  -4.3517  -4.3269  -4.2788  -4.2624
    -4.1608  -4.1439  -4.1385  -4.1237  -4.0824  -4.0532  -4.0042  -3.9892
    -3.9824  -3.9783  -3.9678  -3.9516  -3.9452  -3.9303  -3.9167  -3.8970
    -3.8836  -3.8753  -3.8353  -3.8351  -3.6491  -3.6453  -3.6143  -3.6074
    -3.2923  -3.2902  -3.2536  -3.2460  -3.2358  -3.2311  -3.1542  -3.1452
    -3.1380  -3.1262  -3.0783  -3.0756  -3.0648  -3.0634  -3.0593  -3.0488
    -2.9605  -2.9569  -2.9319  -2.9213  -2.8836  -2.8802  -2.8659  -2.8573
    -2.5674  -2.5506  -2.5361  -2.5237  -2.4034  -2.3929  -2.3843  -2.3762
    -2.3160  -2.3106  -2.3067  -2.2904  -2.2519  -2.2476  -2.1808  -2.1801
    -1.7769  -1.7715  -1.7428  -1.7370  -1.7113  -1.7091  -1.7080  -1.7073
    -0.4117  -0.4101  -0.4039  -0.4020  -0.3224  -0.3206  -0.3133  -0.3132
     0.2205   0.2222   0.2333   0.2374   0.2687   0.2822   0.2918   0.2973
     0.5158   0.5241   0.5429   0.5483   0.5623   0.5637   0.5712   0.5719
     0.9338   0.9341   1.0623   1.0649   1.0989   1.0999   1.2687   1.2694

     highest occupied level (ev):     1.2843

!    total energy              =   -2179.24803576 Ry
     Harris-Foulkes estimate   =   -2179.24803580 Ry
     estimated scf accuracy    <       0.00000004 Ry

     The total energy is the sum of the following terms:

     one-electron contribution =   -1846.17284015 Ry
     hartree contribution      =    1145.14560460 Ry
     xc contribution           =    -626.63604933 Ry
     ewald contribution        =    -850.68197357 Ry
     Dispersion Correction     =      -0.90277730 Ry

     convergence has been achieved in  13 iterations

     negative rho (up, down):  6.049E-05 0.000E+00

     Forces acting on atoms (cartesian axes, Ry/au):

     atom    1 type  1   force =    -0.01272269    0.22803677    0.02171243
     atom    2 type  2   force =     0.24923844   -0.07604547   -0.04396759
     atom    3 type  2   force =    -0.14813220   -0.07570020   -0.19684082
     atom    4 type  2   force =    -0.08779110   -0.10830385    0.21642241
     atom    5 type  1   force =     0.07449984   -0.10824405    0.18697875
     atom    6 type  2   force =     0.00841228    0.24747091    0.05153333
     atom    7 type  2   force =    -0.24469004   -0.07501900   -0.05592227
     atom    8 type  2   force =     0.15460962   -0.05277224   -0.20555612
     atom    9 type  1   force =    -0.13186841   -0.15746938   -0.21077719
     atom   10 type  2   force =     0.14826157    0.20515189    0.22654203
     atom   11 type  1   force =     0.05124516    0.29313537   -0.06678945
     atom   12 type  2   force =    -0.05226665   -0.31945074    0.07875423
     atom   13 type  1   force =    -0.00489954   -0.01607063   -0.00229544
     atom   14 type  5   force =     0.01396884    0.01500955    0.02964231
     atom   15 type  1   force =    -0.00880512   -0.29537001   -0.00016504
     atom   16 type  2   force =    -0.00199734    0.34013208   -0.02501366
     atom   17 type  1   force =     0.13842477    0.18878537    0.19679273
     atom   18 type  2   force =    -0.14777047   -0.20812484   -0.21824776
     atom   19 type  4   force =     0.00204486    0.00490370    0.01302555
     atom   20 type  1   force =    -0.00099415   -0.00543631   -0.00153062
     atom   21 type  1   force =     0.01253034    0.27836441   -0.01614567
     atom   22 type  2   force =    -0.00380315   -0.33017984    0.04667795
     atom   23 type  3   force =     0.18569564   -0.09647809    0.55486428
     atom   24 type  2   force =    -0.17283043    0.12919426   -0.54731339
     atom   25 type  3   force =     0.00067407    0.03082760   -0.00631492
     atom   26 type  1   force =    -0.00252547    0.01521686   -0.01183430
     atom   27 type  1   force =    -0.05552429   -0.21732992    0.01559340
     atom   28 type  2   force =     0.19716259    0.02556733   -0.16967720
     atom   29 type  2   force =     0.07055345    0.08531503    0.22915982
     atom   30 type  2   force =    -0.20531817    0.13925514   -0.08438141
     atom   31 type  1   force =    -0.04120184    0.09499175   -0.21187859
     atom   32 type  2   force =    -0.08482916   -0.24007809   -0.01281691
     atom   33 type  2   force =    -0.12867845    0.13292907    0.18593251
     atom   34 type  2   force =     0.25812121    0.00423839    0.05362425
     atom   35 type  1   force =     0.00318699    0.03365601    0.00169984
     atom   36 type  1   force =    -0.09672716   -0.20598794   -0.19042864
     atom   37 type  2   force =     0.11233382    0.22213022    0.22339081
     atom   38 type  1   force =    -0.03155012   -0.29335928    0.07206730
     atom   39 type  2   force =     0.03663726    0.32678726   -0.08698692
     atom   40 type  1   force =     0.06838084    0.28436677   -0.05236690
     atom   41 type  2   force =    -0.07336119   -0.32491366    0.06778854
     atom   42 type  1   force =     0.10546234    0.15874400    0.21413187
     atom   43 type  2   force =    -0.11809658   -0.21825584   -0.22964070
     atom   44 type  1   force =     0.00706923    0.01447353    0.00516220
     atom   45 type  1   force =    -0.00190682   -0.01177144    0.00690523
     atom   46 type  4   force =    -0.00105856   -0.00609071    0.00562110
     atom   47 type  1   force =    -0.00246431   -0.00095680   -0.00713607
     atom   48 type  3   force =    -0.11743246    0.06475041   -0.57903210
     atom   49 type  2   force =     0.11057538   -0.08994255    0.56944661
     atom   50 type  5   force =    -0.00808557   -0.02690938   -0.03043500
     atom   51 type  3   force =    -0.00187429   -0.02880981    0.01216054
     atom   52 type  1   force =    -0.01209272   -0.02703651   -0.01453009
     atom   53 type  1   force =    -0.05275990   -0.26383136    0.06416106
     atom   54 type  2   force =     0.06281198    0.31889535   -0.07934060
     atom   55 type  1   force =     0.01272269    0.22803677   -0.02171243
     atom   56 type  1   force =     0.01272269   -0.22803677   -0.02171243
     atom   57 type  1   force =    -0.01272269   -0.22803677    0.02171243
     atom   58 type  2   force =    -0.24923844   -0.07604547    0.04396759
     atom   59 type  2   force =    -0.24923844    0.07604547    0.04396759
     atom   60 type  2   force =     0.24923844    0.07604547   -0.04396759
     atom   61 type  2   force =     0.14813220   -0.07570020    0.19684082
     atom   62 type  2   force =     0.14813220    0.07570020    0.19684082
     atom   63 type  2   force =    -0.14813220    0.07570020   -0.19684082
     atom   64 type  2   force =     0.08779110   -0.10830385   -0.21642241
     atom   65 type  2   force =     0.08779110    0.10830385   -0.21642241
     atom   66 type  2   force =    -0.08779110    0.10830385    0.21642241
     atom   67 type  1   force =    -0.07449984   -0.10824405   -0.18697875
     atom   68 type  1   force =    -0.07449984    0.10824405   -0.18697875
     atom   69 type  1   force =     0.07449984    0.10824405    0.18697875
     atom   70 type  2   force =    -0.00841228    0.24747091   -0.05153333
     atom   71 type  2   force =    -0.00841228   -0.24747091   -0.05153333
     atom   72 type  2   force =     0.00841228   -0.24747091    0.05153333
     atom   73 type  2   force =     0.24469004   -0.07501900    0.05592227
     atom   74 type  2   force =     0.24469004    0.07501900    0.05592227
     atom   75 type  2   force =    -0.24469004    0.07501900   -0.05592227
     atom   76 type  2   force =    -0.15460962   -0.05277224    0.20555612
     atom   77 type  2   force =    -0.15460962    0.05277224    0.20555612
     atom   78 type  2   force =     0.15460962    0.05277224   -0.20555612
     atom   79 type  1   force =     0.13186841   -0.15746938    0.21077719
     atom   80 type  1   force =     0.13186841    0.15746938    0.21077719
     atom   81 type  1   force =    -0.13186841    0.15746938   -0.21077719
     atom   82 type  2   force =    -0.14826157    0.20515189   -0.22654203
     atom   83 type  2   force =    -0.14826157   -0.20515189   -0.22654203
     atom   84 type  2   force =     0.14826157   -0.20515189    0.22654203
     atom   85 type  1   force =    -0.05124516    0.29313537    0.06678945
     atom   86 type  1   force =    -0.05124516   -0.29313537    0.06678945
     atom   87 type  1   force =     0.05124516   -0.29313537   -0.06678945
     atom   88 type  2   force =     0.05226665   -0.31945074   -0.07875423
     atom   89 type  2   force =     0.05226665    0.31945074   -0.07875423
     atom   90 type  2   force =    -0.05226665    0.31945074    0.07875423
     atom   91 type  1   force =     0.00489954   -0.01607063    0.00229544
     atom   92 type  1   force =     0.00489954    0.01607063    0.00229544
     atom   93 type  1   force =    -0.00489954    0.01607063   -0.00229544
     atom   94 type  5   force =    -0.01396884    0.01500955   -0.02964231
     atom   95 type  5   force =    -0.01396884   -0.01500955   -0.02964231
     atom   96 type  5   force =     0.01396884   -0.01500955    0.02964231
     atom   97 type  1   force =     0.00880512   -0.29537001    0.00016504
     atom   98 type  1   force =     0.00880512    0.29537001    0.00016504
     atom   99 type  1   force =    -0.00880512    0.29537001   -0.00016504
     atom  100 type  2   force =     0.00199734    0.34013208    0.02501366
     atom  101 type  2   force =     0.00199734   -0.34013208    0.02501366
     atom  102 type  2   force =    -0.00199734   -0.34013208   -0.02501366
     atom  103 type  2   force =     0.12867845    0.13292907   -0.18593251
     atom  104 type  2   force =     0.12867845   -0.13292907   -0.18593251
     atom  105 type  2   force =    -0.12867845   -0.13292907    0.18593251
     atom  106 type  1   force =    -0.13842477    0.18878537   -0.19679273
     atom  107 type  1   force =    -0.13842477   -0.18878537   -0.19679273
     atom  108 type  1   force =     0.13842477   -0.18878537    0.19679273
     atom  109 type  2   force =     0.14777047   -0.20812484    0.21824776
     atom  110 type  2   force =     0.14777047    0.20812484    0.21824776
     atom  111 type  2   force =    -0.14777047    0.20812484   -0.21824776
     atom  112 type  4   force =    -0.00204486    0.00490370   -0.01302555
     atom  113 type  4   force =    -0.00204486   -0.00490370   -0.01302555
     atom  114 type  4   force =     0.00204486   -0.00490370    0.01302555
     atom  115 type  1   force =     0.00099415   -0.00543631    0.00153062
     atom  116 type  1   force =     0.00099415    0.00543631    0.00153062
     atom  117 type  1   force =    -0.00099415    0.00543631   -0.00153062
     atom  118 type  1   force =    -0.01253034    0.27836441    0.01614567
     atom  119 type  1   force =    -0.01253034   -0.27836441    0.01614567
     atom  120 type  1   force =     0.01253034   -0.27836441   -0.01614567
     atom  121 type  2   force =     0.00380315   -0.33017984   -0.04667795
     atom  122 type  2   force =     0.00380315    0.33017984   -0.04667795
     atom  123 type  2   force =    -0.00380315    0.33017984    0.04667795
     atom  124 type  3   force =    -0.18569564   -0.09647809   -0.55486428
     atom  125 type  3   force =    -0.18569564    0.09647809   -0.55486428
     atom  126 type  3   force =     0.18569564    0.09647809    0.55486428
     atom  127 type  2   force =     0.17283043    0.12919426    0.54731339
     atom  128 type  2   force =     0.17283043   -0.12919426    0.54731339
     atom  129 type  2   force =    -0.17283043   -0.12919426   -0.54731339
     atom  130 type  3   force =    -0.00067407    0.03082760    0.00631492
     atom  131 type  3   force =    -0.00067407   -0.03082760    0.00631492
     atom  132 type  3   force =     0.00067407   -0.03082760   -0.00631492
     atom  133 type  1   force =     0.00252547    0.01521686    0.01183430
     atom  134 type  1   force =     0.00252547   -0.01521686    0.01183430
     atom  135 type  1   force =    -0.00252547   -0.01521686   -0.01183430
     atom  136 type  1   force =     0.05552429   -0.21732992   -0.01559340
     atom  137 type  1   force =     0.05552429    0.21732992   -0.01559340
     atom  138 type  1   force =    -0.05552429    0.21732992    0.01559340
     atom  139 type  2   force =    -0.19716259    0.02556733    0.16967720
     atom  140 type  2   force =    -0.19716259   -0.02556733    0.16967720
     atom  141 type  2   force =     0.19716259   -0.02556733   -0.16967720
     atom  142 type  2   force =    -0.07055345    0.08531503   -0.22915982
     atom  143 type  2   force =    -0.07055345   -0.08531503   -0.22915982
     atom  144 type  2   force =     0.07055345   -0.08531503    0.22915982
     atom  145 type  2   force =     0.20531817    0.13925514    0.08438141
     atom  146 type  2   force =     0.20531817   -0.13925514    0.08438141
     atom  147 type  2   force =    -0.20531817   -0.13925514   -0.08438141
     atom  148 type  1   force =     0.04120184    0.09499175    0.21187859
     atom  149 type  1   force =     0.04120184   -0.09499175    0.21187859
     atom  150 type  1   force =    -0.04120184   -0.09499175   -0.21187859
     atom  151 type  2   force =     0.08482916   -0.24007809    0.01281691
     atom  152 type  2   force =     0.08482916    0.24007809    0.01281691
     atom  153 type  2   force =    -0.08482916    0.24007809   -0.01281691
     atom  154 type  2   force =    -0.25812121    0.00423839   -0.05362425
     atom  155 type  2   force =    -0.25812121   -0.00423839   -0.05362425
     atom  156 type  2   force =     0.25812121   -0.00423839    0.05362425
     atom  157 type  1   force =    -0.00318699    0.03365601   -0.00169984
     atom  158 type  1   force =    -0.00318699   -0.03365601   -0.00169984
     atom  159 type  1   force =     0.00318699   -0.03365601    0.00169984
     atom  160 type  1   force =     0.09672716   -0.20598794    0.19042864
     atom  161 type  1   force =     0.09672716    0.20598794    0.19042864
     atom  162 type  1   force =    -0.09672716    0.20598794   -0.19042864
     atom  163 type  2   force =    -0.11233382    0.22213022   -0.22339081
     atom  164 type  2   force =    -0.11233382   -0.22213022   -0.22339081
     atom  165 type  2   force =     0.11233382   -0.22213022    0.22339081
     atom  166 type  1   force =     0.03155012   -0.29335928   -0.07206730
     atom  167 type  1   force =     0.03155012    0.29335928   -0.07206730
     atom  168 type  1   force =    -0.03155012    0.29335928    0.07206730
     atom  169 type  2   force =    -0.03663726    0.32678726    0.08698692
     atom  170 type  2   force =    -0.03663726   -0.32678726    0.08698692
     atom  171 type  2   force =     0.03663726   -0.32678726   -0.08698692
     atom  172 type  1   force =    -0.06838084    0.28436677    0.05236690
     atom  173 type  1   force =    -0.06838084   -0.28436677    0.05236690
     atom  174 type  1   force =     0.06838084   -0.28436677   -0.05236690
     atom  175 type  2   force =     0.07336119   -0.32491366   -0.06778854
     atom  176 type  2   force =     0.07336119    0.32491366   -0.06778854
     atom  177 type  2   force =    -0.07336119    0.32491366    0.06778854
     atom  178 type  1   force =    -0.10546234    0.15874400   -0.21413187
     atom  179 type  1   force =    -0.10546234   -0.15874400   -0.21413187
     atom  180 type  1   force =     0.10546234   -0.15874400    0.21413187
     atom  181 type  2   force =     0.11809658   -0.21825584    0.22964070
     atom  182 type  2   force =     0.11809658    0.21825584    0.22964070
     atom  183 type  2   force =    -0.11809658    0.21825584   -0.22964070
     atom  184 type  1   force =    -0.00706923    0.01447353   -0.00516220
     atom  185 type  1   force =    -0.00706923   -0.01447353   -0.00516220
     atom  186 type  1   force =     0.00706923   -0.01447353    0.00516220
     atom  187 type  1   force =     0.00190682   -0.01177144   -0.00690523
     atom  188 type  1   force =     0.00190682    0.01177144   -0.00690523
     atom  189 type  1   force =    -0.00190682    0.01177144    0.00690523
     atom  190 type  4   force =     0.00105856   -0.00609071   -0.00562110
     atom  191 type  4   force =     0.00105856    0.00609071   -0.00562110
     atom  192 type  4   force =    -0.00105856    0.00609071    0.00562110
     atom  193 type  1   force =     0.00246431   -0.00095680    0.00713607
     atom  194 type  1   force =     0.00246431    0.00095680    0.00713607
     atom  195 type  1   force =    -0.00246431    0.00095680   -0.00713607
     atom  196 type  3   force =     0.11743246    0.06475041    0.57903210
     atom  197 type  3   force =     0.11743246   -0.06475041    0.57903210
     atom  198 type  3   force =    -0.11743246   -0.06475041   -0.57903210
     atom  199 type  2   force =    -0.11057538   -0.08994255   -0.56944661
     atom  200 type  2   force =    -0.11057538    0.08994255   -0.56944661
     atom  201 type  2   force =     0.11057538    0.08994255    0.56944661
     atom  202 type  5   force =     0.00808557   -0.02690938    0.03043500
     atom  203 type  5   force =     0.00808557    0.02690938    0.03043500
     atom  204 type  5   force =    -0.00808557    0.02690938   -0.03043500
     atom  205 type  3   force =     0.00187429   -0.02880981   -0.01216054
     atom  206 type  3   force =     0.00187429    0.02880981   -0.01216054
     atom  207 type  3   force =    -0.00187429    0.02880981    0.01216054
     atom  208 type  1   force =     0.01209272   -0.02703651    0.01453009
     atom  209 type  1   force =     0.01209272    0.02703651    0.01453009
     atom  210 type  1   force =    -0.01209272    0.02703651   -0.01453009
     atom  211 type  1   force =     0.05275990   -0.26383136   -0.06416106
     atom  212 type  1   force =     0.05275990    0.26383136   -0.06416106
     atom  213 type  1   force =    -0.05275990    0.26383136    0.06416106
     atom  214 type  2   force =    -0.06281198    0.31889535    0.07934060
     atom  215 type  2   force =    -0.06281198   -0.31889535    0.07934060
     atom  216 type  2   force =     0.06281198   -0.31889535   -0.07934060

     Total force =     4.207716     Total SCF correction =     0.000386

     BFGS Geometry Optimization

     number of scf cycles    =   1
     number of bfgs steps    =   0

     energy   new            =   -2179.2480357629 Ry

     new trust radius        =       0.5000000000 bohr
     new conv_thr            =       0.0000001000 Ry


ATOMIC_POSITIONS (angstrom)
C        0.267066276   4.185344496   0.833475662
H        1.291342784   3.777247051   0.651167070
H        7.361826398   3.764130753   0.002132918
H       -0.086301719   3.639026673   1.733774163
C        4.173014886   6.209503298  11.990636813
H        4.165514870   7.309895940  12.118090950
H        3.130952012   5.960853998  11.677275238
H       -2.926422866   6.043747529  11.066063152
C        2.907266504   6.165689794   7.648308904
H        3.438561190   6.879646899   8.469939086
C        2.181832664   4.177824259   7.090297527
H        2.001382600   3.009750999   7.370748802
C        2.561688885   6.730955884   6.505158146
F        3.140128471   4.444191759   9.232175784
C        0.639370251   6.021570952   2.022576529
H        0.645570851   7.233915655   1.971974740
C        1.837842172   4.640781060   5.985635676
H        1.304757428   3.895409641   5.187503252
N        0.214440303   5.526182968   0.940948546
C        1.569617437   6.449689931   4.225828618
C        1.086178096   5.726218711   3.182282479
H        1.058576962   4.533394756   3.329599491
O        2.840035611   7.995761116   6.517877391
H        2.450031558   8.272513048   5.260544017
O        1.689220072   7.708923438   4.053288804
C        1.970985744   5.895294049   5.540041755
C        3.140032408  12.804381844   2.712221670
H        3.977940323  13.001871739   2.007035274
H        3.469178082  13.269569455   3.666764440
H        2.319689080  13.468321825   2.355506164
C        3.011858289  10.915987215   4.009568598
H        2.678446838   9.859945103   4.066034332
H        2.499426574  11.410645664   4.871341059
H        4.084607100  10.882226791   4.323641758
C        5.059308745  11.770562553   7.746896712
C       -1.937529763  12.156700920   9.831387410
H       -1.528742664  12.961085096  10.639646268
C       -2.205335081  12.560186065   8.682202000
H       -2.073200292  13.728754977   8.374026276
C        2.339430909  10.962470765   1.768277972
H        2.067792004   9.797849086   1.978117235
C        4.912258378  10.520567627   8.143354492
H        4.490477273   9.759069653   7.306231488
C       -2.538943008  10.021483141   9.339168042
C       -2.048518855  10.912919743  10.306033982
N        2.797778763  11.509788617   2.820582332
C       -1.748857028  10.424254063  11.668793255
O        4.906412916   8.751674761   9.372633887
H       -2.548705466   8.557620524  10.680898965
F        4.761670570  12.172050826   6.475411335
O       -1.957624374   9.190224816  11.923843472
C        2.746546717   4.909884232   8.006151680
C        2.051623023  11.182260926   0.556902401
H        2.279191835  12.329531756   0.282460167
C        5.780663724  15.244844496   5.231084338
C        4.125003724  17.933655504  11.295644338
C       -1.388593724   6.874155504   6.898035662
H        4.756397216  14.836747051   5.413392930
H        3.100737216  18.341752949  11.477952930
H       -0.364327216   7.282252949   6.715727070
H       -1.314086398  14.823630753   6.062427082
H       -2.969746398  18.354869247  12.126987082
H        5.706156398   7.295369247   6.066682918
H        6.134041719  14.698526673   4.330785837
H        4.478381719  18.479973327  10.395345837
H       -1.741971719   7.420473327   7.798334163
C       -1.436604886  17.269003298   6.203043187
C        0.219065114  15.909496702   0.138483187
C        5.828674886   4.849996702   5.926076813
H       -1.429104870  18.369395940   6.075579050
H        0.226555130  14.809104060   0.011019050
H        5.821174870   3.749604060   6.053540950
H       -0.394542012  17.020353998   6.516394762
H        1.261117988  16.158146002   0.451834762
H        4.786622012   5.098646002   5.612715238
H        5.662832866  17.103247529   7.127606848
H        7.318492866  16.075252471   1.063046848
H       -1.270752866   5.015752471   5.001513152
C       -0.170856504  17.225189794  10.545371096
C        1.484803496  15.953310206   4.480811096
C        4.562926504   4.893810206   1.583748904
H       -0.702151190  17.939146899   9.723730914
H        0.953508810  15.239353101   3.659180914
H        5.094231190   4.179853101   2.405379086
C        0.554587336  15.237324259  11.103372473
C        2.210247336  17.941175741   5.038812473
C        3.837492664   6.881675741   1.025747527
H        0.735027400  14.069250999  10.822921198
H        2.390697400  19.109249001   4.758371198
H        3.657042600   8.049749001   1.306188802
C        0.174721115  17.790455884  11.688511854
C        1.830391115  15.388044116   5.623961854
C        4.217348885   4.328544116   0.440598146
F       -0.403718471  15.503691759   8.961504216
F        1.251941529  17.674808241   2.896944216
F        4.795798471   6.615308241   3.167615784
C        5.408359749  17.081070952   4.041983471
C        3.752699749  16.097429048  10.106533471
C       -1.016289749   5.037929048   8.087136529
H        5.402159149  18.293415655   4.092585260
H        3.746499149  14.885084345  10.157145260
H       -1.010089149   3.825584345   8.036534740
H        3.548303426   0.351145664   1.193208941
H        1.892643426  10.708354336   7.257768941
H        0.843766574  21.767854336  10.935901059
C        4.209897828  15.700281060   0.078924324
C        2.554237828  17.478218940   6.143484324
C        0.182172172   6.418718940  12.050185676
H        4.742982572  14.954909641   0.877056748
H        3.087322572  18.223590359   6.941616748
H       -0.350912572   7.164090359  11.252053252
N        5.833299697  16.585682968   5.123601454
N        4.177639697  16.592817032  11.188161454
N       -1.441229697   5.533317032   7.005508546
C        4.478122563  17.509189931   1.838731382
C        2.822462563  15.669310069   7.903281382
C       -0.086052563   4.609810069  10.290388618
C        4.961561904  16.785718711   2.882277521
C        3.305891904  16.392781289   8.946827521
C       -0.569481904   5.333281289   9.246842479
H        4.989163038  15.592894756   2.734960509
H        3.333503038  17.585605244   8.799510509
H       -0.597093038   6.526105244   9.394159491
O       -0.103625611  19.055261116  11.675792609
O        1.552034389  14.123238884   5.611232609
O        4.495695611   3.063738884   0.453327391
H        3.597708442  19.332013048   0.804015983
H        1.942048442  13.846486952   6.868565983
H        0.794371558   2.786986952  11.325104017
O        4.358519928  18.768423438   2.011271196
O        2.702859928  14.410076562   8.075831196
O        0.033550072   3.350576562  10.117848804
C        4.076744256  16.954794049   0.524518245
C        2.421084256  16.223705951   6.589078245
C        0.315325744   5.164205951  11.604601755
C        2.907697592   1.744881844   3.352338330
C        1.252037592   9.314618156   9.416898330
C        1.484372408  20.374118156   8.776781670
H        2.069789677   1.942371739   4.057524726
H        0.414129677   9.117128261  10.122084726
H        2.322280323  20.176628261   8.071595274
H        2.578561918   2.210069455   2.397795560
H        0.922901918   8.849430545   8.462355560
H        1.813518082  19.908930545   9.731324440
H        3.728050920   2.408821825   3.709043836
H        2.072390920   8.650678175   9.773603836
H        0.664029080  19.710178175   8.420066164
C        3.035871711  21.975487215   2.054991402
C        1.380211711  11.203012785   8.119551402
C        1.356198289   0.143512785  10.074118598
H        3.369293162  20.919445103   1.998515668
H        1.713633162  12.259054897   8.063075668
H        1.022776838   1.199554897  10.130594332
H        1.963132900  21.941726791   1.740918242
H        0.307472900  11.236773209   7.805468242
H        2.428937100   0.177273209  10.388201758
C       -2.322898745   0.711062553  10.446783288
C       -0.667238745  10.348437447   4.382223288
C        6.714968745  21.407937447   1.682336712
C        4.673939763   1.097200920   8.362292590
C        6.329599763   9.962299080   2.297732590
C       -0.281859763  21.021799080   3.766827410
H        4.265152664   1.901585096   7.554023732
H        5.920812664   9.157914904   1.489463732
H        0.126917336  20.217414904   4.575086268
C        4.941745081   1.500686065   9.511468000
C        6.597415081   9.558813935   3.446908000
C       -0.549675081  20.618313935   2.617642000
H        4.809620292   2.669254977   9.819643724
H        6.465280292   8.390245023   3.755083724
H       -0.417540292  19.449745023   2.309476276
C        3.708309091  22.021970765   4.296282028
C        2.052639091  11.156529235  10.360832028
C        0.683770909   0.097029235   7.832837972
H        3.979937996  20.857349086   4.086442765
H        2.324277996  12.321150914  10.151002765
H        0.412132004   1.261650914   8.042667235
C       -2.175848378  21.580067627  10.050315508
C       -0.520188378  11.598432373   3.985755508
C        6.567928378   0.538932373   2.078794492
H       -1.754067273  20.818569653  10.887438512
H       -0.098407273  12.359930347   4.822878512
H        6.146137273   1.300430347   1.241681488
C        5.275353008  21.080983141   8.854501958
C        6.931023008  12.097516859   2.789941958
C       -0.883283008   1.038016859   3.274608042
C        4.784928855  21.972419743   7.887646018
C        6.440598855  11.206080257   1.823086018
C       -0.392858855   0.146580257   4.241473982
N        3.249961237   0.450288617   3.243977668
N        1.594301237  10.609211383   9.308537668
N        1.142108763  21.668711383   8.885142332
C        4.485267028  21.483754063   6.524876745
C        6.140927028  11.694745937   0.460326745
C       -0.093187028   0.635245937   5.604233255
O       -2.170002916  19.811174761   8.821046113
O       -0.514342916  13.367325239   2.756486113
O        6.562072916   2.307825239   3.308073887
H        5.285115466  19.617120524   7.512771035
H        6.940775466  13.561379476   1.448211035
H       -0.893035466   2.501879476   4.616338965
F       -2.025260570   1.112550826  11.718268665
F       -0.369600570   9.946949174   5.653708665
F        6.417330570  21.006449174   0.410851335
O        4.694034374  20.249724816   6.269826528
O        6.349694374  12.928775184   0.205266528
O       -0.301954374   1.869275184   5.859293472
C       -0.010126717  15.969384232  10.187528320
C        1.645533283  17.209115768   4.122968320
C        4.402206717   6.149615768   1.941591680
C        3.996116977   0.122760926   5.507647599
C        2.340456977  10.936739074  11.572207599
C        0.395963023  21.996239074   6.621462401
H        3.768548165   1.270031756   5.782099833
H        2.112888165   9.789468244  11.846649833
H        0.623521835  20.848968244   6.347020167



     Writing output data file 2hp_2.save
     charge density from previous step

     Check: negative/imaginary core charge=   -0.000673    0.000000

     negative rho (up, down):  6.049E-05 0.000E+00

     total cpu time spent up to now is    11638.1 secs

     per-process dynamical memory:  1925.7 Mb

     Self-consistent Calculation

     iteration #  1     ecut=    30.00 Ry     beta=0.70
     Davidson diagonalization with overlap
     ethr =  1.00E-06,  avg # of iterations = 13.0

     negative rho (up, down):  1.770E-05 0.000E+00

     total cpu time spent up to now is    14824.6 secs

     total energy              =   -2148.32444882 Ry
     Harris-Foulkes estimate   =   -2222.44253172 Ry
     estimated scf accuracy    <      99.68351516 Ry

     iteration #  2     ecut=    30.00 Ry     beta=0.70
     Davidson diagonalization with overlap
     ethr =  1.00E-02,  avg # of iterations =  5.0

     negative rho (up, down):  6.646E-06 0.000E+00

     total cpu time spent up to now is    16289.7 secs

     total energy              =   -2143.49853943 Ry
     Harris-Foulkes estimate   =   -2199.39206323 Ry
     estimated scf accuracy    <     107.20998665 Ry

     iteration #  3     ecut=    30.00 Ry     beta=0.70
     Davidson diagonalization with overlap
     ethr =  1.00E-02,  avg # of iterations =  6.0

     total cpu time spent up to now is    17849.9 secs

     total energy              =   -2160.68354427 Ry
     Harris-Foulkes estimate   =   -2192.09461377 Ry
     estimated scf accuracy    <     106.12657207 Ry

     iteration #  4     ecut=    30.00 Ry     beta=0.70
     Davidson diagonalization with overlap
     ethr =  1.00E-02,  avg # of iterations =  5.2

     total cpu time spent up to now is    18956.5 secs

     total energy              =   -2177.41474920 Ry
     Harris-Foulkes estimate   =   -2183.65881053 Ry
     estimated scf accuracy    <      17.57602369 Ry

     iteration #  5     ecut=    30.00 Ry     beta=0.70
     Davidson diagonalization with overlap
     ethr =  2.75E-03,  avg # of iterations =  4.8

     total cpu time spent up to now is    19818.8 secs

     total energy              =   -2180.00183095 Ry
     Harris-Foulkes estimate   =   -2180.78069078 Ry
     estimated scf accuracy    <       1.99028830 Ry

     iteration #  6     ecut=    30.00 Ry     beta=0.70
     Davidson diagonalization with overlap
     ethr =  3.11E-04,  avg # of iterations =  3.0

     total cpu time spent up to now is    20594.8 secs

     total energy              =   -2180.23175124 Ry
     Harris-Foulkes estimate   =   -2180.33812734 Ry
     estimated scf accuracy    <       0.34688229 Ry

     iteration #  7     ecut=    30.00 Ry     beta=0.70
     Davidson diagonalization with overlap
     ethr =  5.42E-05,  avg # of iterations =  3.0

     total cpu time spent up to now is    21379.4 secs

     total energy              =   -2180.23436917 Ry
     Harris-Foulkes estimate   =   -2180.28452712 Ry
     estimated scf accuracy    <       0.14432044 Ry

     iteration #  8     ecut=    30.00 Ry     beta=0.70
     Davidson diagonalization with overlap
     ethr =  2.26E-05,  avg # of iterations =  4.0

     negative rho (up, down):  9.319E-06 0.000E+00

     total cpu time spent up to now is    22225.8 secs

     total energy              =   -2180.24236046 Ry
     Harris-Foulkes estimate   =   -2180.25424007 Ry
     estimated scf accuracy    <       0.03437414 Ry

     iteration #  9     ecut=    30.00 Ry     beta=0.70
     Davidson diagonalization with overlap
     ethr =  5.37E-06,  avg # of iterations =  4.0

     negative rho (up, down):  1.347E-05 0.000E+00

     total cpu time spent up to now is    23121.5 secs

     total energy              =   -2180.24488977 Ry
     Harris-Foulkes estimate   =   -2180.24851166 Ry
     estimated scf accuracy    <       0.00900505 Ry

     iteration # 10     ecut=    30.00 Ry     beta=0.70
     Davidson diagonalization with overlap
     ethr =  1.41E-06,  avg # of iterations =  4.0

     negative rho (up, down):  1.542E-05 0.000E+00

     total cpu time spent up to now is    24020.4 secs

     total energy              =   -2180.24595975 Ry
     Harris-Foulkes estimate   =   -2180.24650930 Ry
     estimated scf accuracy    <       0.00145626 Ry

     iteration # 11     ecut=    30.00 Ry     beta=0.70
     Davidson diagonalization with overlap
     ethr =  2.28E-07,  avg # of iterations =  3.0

     negative rho (up, down):  1.819E-05 0.000E+00

     total cpu time spent up to now is    24856.6 secs

     total energy              =   -2180.24603240 Ry
     Harris-Foulkes estimate   =   -2180.24618667 Ry
     estimated scf accuracy    <       0.00033893 Ry

     iteration # 12     ecut=    30.00 Ry     beta=0.70
     Davidson diagonalization with overlap
     ethr =  5.30E-08,  avg # of iterations =  3.0

     negative rho (up, down):  1.957E-05 0.000E+00

     total cpu time spent up to now is    25737.4 secs

     total energy              =   -2180.24606877 Ry
     Harris-Foulkes estimate   =   -2180.24609343 Ry
     estimated scf accuracy    <       0.00004460 Ry

     iteration # 13     ecut=    30.00 Ry     beta=0.70
     Davidson diagonalization with overlap
     ethr =  6.97E-09,  avg # of iterations =  4.0

     negative rho (up, down):  1.937E-05 0.000E+00

     total cpu time spent up to now is    26756.0 secs

     total energy              =   -2180.24607859 Ry
     Harris-Foulkes estimate   =   -2180.24608683 Ry
     estimated scf accuracy    <       0.00001956 Ry

     iteration # 14     ecut=    30.00 Ry     beta=0.70
     Davidson diagonalization with overlap
     ethr =  3.06E-09,  avg # of iterations =  4.0

     negative rho (up, down):  1.937E-05 0.000E+00

     total cpu time spent up to now is    27821.4 secs

     total energy              =   -2180.24608239 Ry
     Harris-Foulkes estimate   =   -2180.24608318 Ry
     estimated scf accuracy    <       0.00000176 Ry

     iteration # 15     ecut=    30.00 Ry     beta=0.70
     Davidson diagonalization with overlap
     ethr =  2.75E-10,  avg # of iterations =  4.0

     negative rho (up, down):  1.937E-05 0.000E+00

     total cpu time spent up to now is    28961.6 secs

     total energy              =   -2180.24608279 Ry
     Harris-Foulkes estimate   =   -2180.24608295 Ry
     estimated scf accuracy    <       0.00000039 Ry

     iteration # 16     ecut=    30.00 Ry     beta=0.70
     Davidson diagonalization with overlap
     ethr =  6.06E-11,  avg # of iterations =  4.0

     negative rho (up, down):  1.938E-05 0.000E+00

     total cpu time spent up to now is    29803.7 secs

     End of self-consistent calculation

          k = 0.0000 0.0000 0.0000 ( 38709 PWs)   bands (ev):

   -24.7104 -24.7103 -24.7103 -24.7102 -24.6720 -24.6719 -24.6565 -24.6564
   -20.1608 -20.1603 -20.1427 -20.1422 -20.0719 -20.0718 -20.0664 -20.0663
   -19.7610 -19.7600 -19.7499 -19.7497 -19.7427 -19.7415 -19.7249 -19.7247
   -19.5831 -19.5824 -19.5675 -19.5671 -19.5140 -19.5139 -19.5099 -19.5097
   -16.3097 -16.3096 -16.3094 -16.3093 -16.2677 -16.2676 -16.2637 -16.2635
   -14.1211 -14.1203 -14.0728 -14.0721 -14.0490 -14.0486 -14.0146 -14.0140
   -13.2156 -13.2156 -13.2113 -13.2099 -13.1931 -13.1915 -13.1751 -13.1741
   -12.5410 -12.5213 -12.5107 -12.5103 -12.4951 -12.4921 -12.4910 -12.4887
   -12.4025 -12.3989 -12.3774 -12.3743 -12.3593 -12.3567 -12.3527 -12.3503
   -11.7757 -11.7740 -11.7614 -11.7552 -11.7496 -11.7429 -11.7343 -11.7336
   -10.1418 -10.1391 -10.1382 -10.1363 -10.1307 -10.1262 -10.1242 -10.1199
    -9.0997  -9.0973  -9.0697  -9.0527  -9.0169  -8.9985  -8.9962  -8.9911
    -8.7049  -8.6988  -8.6856  -8.6773  -8.6075  -8.5878  -8.5859  -8.5701
    -7.8366  -7.8267  -7.7877  -7.7805  -7.7340  -7.6732  -7.6402  -7.6232
    -7.4764  -7.4621  -7.4596  -7.4545  -7.4202  -7.4198  -7.4105  -7.3938
    -7.1625  -7.1602  -7.1540  -7.1318  -7.1194  -7.1013  -7.0999  -7.0920
    -6.7460  -6.7389  -6.7376  -6.7373  -6.7197  -6.7124  -6.7025  -6.6948
    -6.4771  -6.4709  -6.4222  -6.4137  -6.3666  -6.3542  -6.3165  -6.3090
    -6.3068  -6.2517  -6.1926  -6.1668  -6.1458  -6.1408  -6.0826  -6.0694
    -5.8854  -5.8767  -5.8643  -5.8427  -5.8297  -5.8140  -5.8006  -5.7967
    -5.4338  -5.4247  -5.3775  -5.3691  -5.3407  -5.3382  -5.2524  -5.2431
    -4.9965  -4.9737  -4.9448  -4.9414  -4.8350  -4.8232  -4.8136  -4.8117
    -4.7635  -4.7413  -4.6730  -4.6665  -4.6490  -4.6356  -4.6280  -4.6247
    -4.6195  -4.6026  -4.5713  -4.5008  -4.3634  -4.3617  -4.2583  -4.2492
    -4.0942  -4.0359  -4.0095  -3.9656  -3.9600  -3.9347  -3.9233  -3.8615
    -3.8065  -3.8011  -3.7818  -3.7620  -3.7600  -3.7573  -3.7566  -3.7010
    -3.6890  -3.6767  -3.6385  -3.6258  -3.6138  -3.5869  -3.5722  -3.5644
    -3.5623  -3.5591  -3.5436  -3.5311  -3.5235  -3.5143  -3.4903  -3.4516
    -3.4410  -3.4223  -3.3889  -3.3743  -3.3538  -3.3527  -3.3475  -3.3287
    -3.2731  -3.2612  -3.2524  -3.2377  -3.2271  -3.2001  -3.1822  -3.1619
    -2.8858  -2.8527  -2.8190  -2.8001  -2.7749  -2.7678  -2.7188  -2.6984
    -2.4925  -2.4914  -2.4512  -2.4505  -2.4402  -2.4335  -2.4056  -2.3972
    -2.3565  -2.3519  -2.3371  -2.3183  -2.2946  -2.2544  -2.2468  -2.2328
    -2.0374  -1.9647  -1.9289  -1.9227  -1.8603  -1.8579  -1.8397  -1.8190
    -1.8101  -1.7887  -1.7709  -1.7660  -1.6832  -1.6613  -1.6458  -1.5923
    -1.3748  -1.3492  -1.3120  -1.2703  -1.2413  -1.2226  -1.2096  -1.1975
    -0.4807  -0.4686  -0.4356  -0.4268  -0.4243  -0.4222  -0.2924  -0.2909
    -0.1365  -0.1352  -0.1346  -0.1246  -0.0131  -0.0102  -0.0049  -0.0015
     0.3582   0.3886   0.4584   0.4619   0.4745   0.4968   0.5435   0.5602
     0.7280   0.7808   0.7826   0.8244   0.8274   0.8613   0.8803   0.8949

          k = 0.0000 0.0000-0.3176 ( 38746 PWs)   bands (ev):

   -24.7104 -24.7103 -24.7103 -24.7103 -24.6720 -24.6719 -24.6566 -24.6564
   -20.1605 -20.1604 -20.1423 -20.1422 -20.0696 -20.0696 -20.0694 -20.0693
   -19.7550 -19.7548 -19.7548 -19.7545 -19.7419 -19.7419 -19.7249 -19.7248
   -19.5833 -19.5833 -19.5676 -19.5675 -19.5120 -19.5119 -19.5115 -19.5115
   -16.3096 -16.3095 -16.3094 -16.3093 -16.2675 -16.2675 -16.2635 -16.2635
   -14.1230 -14.1229 -14.0769 -14.0767 -14.0349 -14.0349 -14.0342 -14.0342
   -13.2021 -13.2021 -13.1961 -13.1960 -13.1872 -13.1872 -13.1707 -13.1707
   -12.5265 -12.5264 -12.5130 -12.5129 -12.4969 -12.4968 -12.4905 -12.4905
   -12.3945 -12.3944 -12.3846 -12.3845 -12.3591 -12.3590 -12.3490 -12.3490
[...]
     atom  134 type  1   force =     0.00009980   -0.00017421    0.00013759
     atom  135 type  1   force =    -0.00009980   -0.00017421   -0.00013759
     atom  136 type  1   force =     0.00002558   -0.00000493    0.00010376
     atom  137 type  1   force =     0.00002558    0.00000493    0.00010376
     atom  138 type  1   force =    -0.00002558    0.00000493   -0.00010376
     atom  139 type  2   force =    -0.00018154   -0.00022179    0.00014284
     atom  140 type  2   force =    -0.00018154    0.00022179    0.00014284
     atom  141 type  2   force =     0.00018154    0.00022179   -0.00014284
     atom  142 type  2   force =     0.00029441   -0.00012257   -0.00052651
     atom  143 type  2   force =     0.00029441    0.00012257   -0.00052651
     atom  144 type  2   force =    -0.00029441    0.00012257    0.00052651
     atom  145 type  2   force =     0.00019709   -0.00017067    0.00037685
     atom  146 type  2   force =     0.00019709    0.00017067    0.00037685
     atom  147 type  2   force =    -0.00019709    0.00017067   -0.00037685
     atom  148 type  1   force =     0.00005345    0.00001401    0.00002823
     atom  149 type  1   force =     0.00005345   -0.00001401    0.00002823
     atom  150 type  1   force =    -0.00005345   -0.00001401   -0.00002823
     atom  151 type  2   force =     0.00017597    0.00006497   -0.00035921
     atom  152 type  2   force =     0.00017597   -0.00006497   -0.00035921
     atom  153 type  2   force =    -0.00017597   -0.00006497    0.00035921
     atom  154 type  2   force =    -0.00033112    0.00012673    0.00003950
     atom  155 type  2   force =    -0.00033112   -0.00012673    0.00003950
     atom  156 type  2   force =     0.00033112   -0.00012673   -0.00003950
     atom  157 type  1   force =    -0.00015248   -0.00023487    0.00025688
     atom  158 type  1   force =    -0.00015248    0.00023487    0.00025688
     atom  159 type  1   force =     0.00015248    0.00023487   -0.00025688
     atom  160 type  1   force =     0.00012010    0.00043646   -0.00000389
     atom  161 type  1   force =     0.00012010   -0.00043646   -0.00000389
     atom  162 type  1   force =    -0.00012010   -0.00043646    0.00000389
     atom  163 type  2   force =    -0.00004728   -0.00018053    0.00005256
     atom  164 type  2   force =    -0.00004728    0.00018053    0.00005256
     atom  165 type  2   force =     0.00004728    0.00018053   -0.00005256
     atom  166 type  1   force =     0.00003366   -0.00022566    0.00008731
     atom  167 type  1   force =     0.00003366    0.00022566    0.00008731
     atom  168 type  1   force =    -0.00003366    0.00022566   -0.00008731
     atom  169 type  2   force =    -0.00053617   -0.00026468   -0.00050971
     atom  170 type  2   force =    -0.00053617    0.00026468   -0.00050971
     atom  171 type  2   force =     0.00053617    0.00026468    0.00050971
     atom  172 type  1   force =    -0.00000893   -0.00027090    0.00003604
     atom  173 type  1   force =    -0.00000893    0.00027090    0.00003604
     atom  174 type  1   force =     0.00000893    0.00027090   -0.00003604
     atom  175 type  2   force =    -0.00006015   -0.00019921   -0.00045185
     atom  176 type  2   force =    -0.00006015    0.00019921   -0.00045185
     atom  177 type  2   force =     0.00006015    0.00019921    0.00045185
     atom  178 type  1   force =     0.00032844   -0.00037711   -0.00036359
     atom  179 type  1   force =     0.00032844    0.00037711   -0.00036359
     atom  180 type  1   force =    -0.00032844    0.00037711    0.00036359
     atom  181 type  2   force =     0.00044421   -0.00041616    0.00029049
     atom  182 type  2   force =     0.00044421    0.00041616    0.00029049
     atom  183 type  2   force =    -0.00044421    0.00041616   -0.00029049
     atom  184 type  1   force =     0.00001501    0.00064370    0.00003623
     atom  185 type  1   force =     0.00001501   -0.00064370    0.00003623
     atom  186 type  1   force =    -0.00001501   -0.00064370   -0.00003623
     atom  187 type  1   force =    -0.00013813    0.00006155   -0.00018770
     atom  188 type  1   force =    -0.00013813   -0.00006155   -0.00018770
     atom  189 type  1   force =     0.00013813   -0.00006155    0.00018770
     atom  190 type  4   force =     0.00011848   -0.00007039    0.00018284
     atom  191 type  4   force =     0.00011848    0.00007039    0.00018284
     atom  192 type  4   force =    -0.00011848    0.00007039   -0.00018284
     atom  193 type  1   force =    -0.00027274    0.00044499    0.00030176
     atom  194 type  1   force =    -0.00027274   -0.00044499    0.00030176
     atom  195 type  1   force =     0.00027274   -0.00044499   -0.00030176
     atom  196 type  3   force =     0.00024390    0.00028317   -0.00007018
     atom  197 type  3   force =     0.00024390   -0.00028317   -0.00007018
     atom  198 type  3   force =    -0.00024390   -0.00028317    0.00007018
     atom  199 type  2   force =     0.00012321   -0.00012812    0.00011143
     atom  200 type  2   force =     0.00012321    0.00012812    0.00011143
     atom  201 type  2   force =    -0.00012321    0.00012812   -0.00011143
     atom  202 type  5   force =    -0.00042305    0.00022504    0.00052381
     atom  203 type  5   force =    -0.00042305   -0.00022504    0.00052381
     atom  204 type  5   force =     0.00042305   -0.00022504   -0.00052381
     atom  205 type  3   force =    -0.00010308    0.00011999    0.00080754
     atom  206 type  3   force =    -0.00010308   -0.00011999    0.00080754
     atom  207 type  3   force =     0.00010308   -0.00011999   -0.00080754
     atom  208 type  1   force =    -0.00013982   -0.00003971    0.00045192
     atom  209 type  1   force =    -0.00013982    0.00003971    0.00045192
     atom  210 type  1   force =     0.00013982    0.00003971   -0.00045192
     atom  211 type  1   force =     0.00006648   -0.00046779    0.00042781
     atom  212 type  1   force =     0.00006648    0.00046779    0.00042781
     atom  213 type  1   force =    -0.00006648    0.00046779   -0.00042781
     atom  214 type  2   force =     0.00017031   -0.00023281   -0.00002436
     atom  215 type  2   force =     0.00017031    0.00023281   -0.00002436
     atom  216 type  2   force =    -0.00017031    0.00023281    0.00002436

     Total force =     0.006638     Total SCF correction =     0.000059

     number of scf cycles    =  50
     number of bfgs steps    =  49

     energy   old            =   -2183.2418082589 Ry
     energy   new            =   -2183.2418751450 Ry

     CASE: energy  _new < energy  _old

     new trust radius        =       0.0071667151 bohr
     new conv_thr            =       0.0000000010 Ry


ATOMIC_POSITIONS (angstrom)
C        0.261501214   4.044224580   0.808436677
H        1.281682811   3.711615480   0.541089350
H        7.273993433   3.712541237   0.019660010
H       -0.041014306   3.573820294   1.753713730
C        4.158223913   6.202345394  11.842611799
H        4.143797026   7.282161048  12.030426957
H        3.150891776   5.858120809  11.553776659
H       -2.862380972   5.984835346  11.001734636
C        3.051869851   6.288247102   7.720143569
H        3.549080476   6.952134003   8.430406735
C        2.184176221   4.075384368   7.144268960
H        1.957128680   3.054645825   7.453382802
C        2.636985498   6.775671374   6.467748869
F        3.200197455   4.492455357   9.252297648
C        0.618412502   6.160336444   1.993458300
H        0.584232573   7.250421465   1.907726984
C        1.793523219   4.565972483   5.904675696
H        1.260882288   3.887457483   5.239483425
N        0.202242533   5.498938915   0.912169128
C        1.583666203   6.461645556   4.213492653
C        1.094654847   5.616427594   3.175406368
H        1.133004117   4.537454988   3.303665092
O        2.824808044   8.070795691   6.179774621
H        2.350645882   8.163026011   5.228749875
O        1.681781621   7.738580486   4.058275933
C        2.012972078   5.901565478   5.519527859
C        3.176962837  12.994650290   2.684138035
H        4.024925386  13.106389991   1.988732929
H        3.458283057  13.395824869   3.666911033
H        2.320725307  13.570014549   2.297229075
C        3.072034125  10.974627752   4.123984827
H        2.738462475   9.932248042   4.094837875
H        2.530424304  11.522229794   4.914878975
H        4.150416825  11.011057941   4.355396646
C        5.114493674  11.768891403   7.670437823
C       -1.816101368  12.295439154   9.855748209
H       -1.451630288  13.039782672  10.563822971
C       -2.107267564  12.722624549   8.566088329
H       -1.986068332  13.764301435   8.263689292
C        2.327234170  10.890684660   1.805543973
H        2.065883377   9.854646078   2.040247257
C        4.928001734  10.439149032   7.991356369
H        4.529178003   9.730210811   7.261914600
C       -2.497467908  10.028121278   9.306739418
C       -1.996454688  10.961505491  10.270749434
N        2.818330579  11.591693042   2.828600263
C       -1.738516534  10.488303447  11.650613956
O        4.983572330   8.747991291   9.649247298
H       -2.464951384   8.745105474  10.690378231
F        4.793073195  12.166728656   6.392137760
O       -2.014544142   9.250600080  11.914760299
C        2.812709770   4.961722863   8.015746061
C        2.111909966  11.351032866   0.519200924
H        2.365862878  12.376118391   0.260987769
C        5.786228786  15.103724580   5.256123323
C        4.130568786  18.074775420  11.320683323
C       -1.394158786   7.015275420   6.872996677
H        4.766057189  14.771115480   5.523470650
H        3.110397189  18.407384520  11.588030650
H       -0.373987189   7.347884520   6.605649350
H       -1.226253433  14.772041237   6.044899990
H       -2.881913433  18.406458763  12.109459990
H        5.618323433   7.346958763   6.084210010
H        6.088754306  14.633320294   4.310846270
H        4.433094306  18.545179706  10.375406270
H       -1.696684306   7.485679706   7.818273730
C       -1.421813913  17.261845394   6.351068201
C        0.233856087  15.916654606   0.286508201
C        5.813883913   4.857154606   5.778051799
H       -1.407387026  18.341661048   6.163243043
H        0.248272974  14.836838952   0.098683043
H        5.799457026   3.777338952   5.965876957
H       -0.414481776  16.917620809   6.639893341
H        1.241178224  16.260879191   0.575333341
H        4.806561776   5.201379191   5.489216659
H        5.598790972  17.044335346   7.191935364
H        7.254450972  16.134164654   1.127375364
H       -1.206710972   5.074664654   4.937184636
C       -0.315459851  17.347747102  10.473536431
C        1.340200149  15.830752898   4.408976431
C        4.707529851   4.771252898   1.655583569
H       -0.812670476  18.011634003   9.763263265
H        0.842989524  15.166865997   3.698713265
H        5.204750476   4.107365997   2.365846735
C        0.552243779  15.134884368  11.049401040
C        2.207903779  18.043615632   4.984841040
C        3.839836221   6.984115632   1.079718960
H        0.779281320  14.114145825  10.740287198
H        2.434951320  19.064354175   4.675737198
H        3.612788680   8.004854175   1.388822802
C        0.099424502  17.835171374  11.725921131
C        1.755094502  15.343328626   5.661371131
C        4.292645498   4.283828626   0.403188869
F       -0.463787455  15.551955357   8.941382352
F        1.191872545  17.626544643   2.876822352
F        4.855867455   6.567044643   3.187737648
C        5.429317498  17.219836444   4.071101700
C        3.773657498  15.958663556  10.135651700
C       -1.037247498   4.899163556   8.058018300
H        5.463497427  18.309921465   4.156833016
H        3.807837427  14.868578535  10.221393016
H       -1.071427427   3.809078535   7.972286984
H        3.517305696   0.462729794   1.149671025
H        1.861645696  10.596770206   7.214231025
H        0.874764304  21.656270206  10.979438975
C        4.254216781  15.625472483   0.159884304
C        2.598556781  17.553027517   6.224444304
C        0.137853219   6.493527517  11.969225696
H        4.786857712  14.946957483   0.825076575
H        3.131197712  18.231542517   6.889636575
H       -0.394787712   7.172042517  11.304033425
N        5.845497467  16.558438915   5.152380872
N        4.189837467  16.620061085  11.216940872
N       -1.453427467   5.560561085   6.976729128
C        4.464073797  17.521145556   1.851067347
C        2.808413797  15.657354444   7.915617347
C       -0.072003797   4.597854444  10.278052653
C        4.953085153  16.675927594   2.889153632
C        3.297415153  16.502572406   8.953703632
C       -0.561005153   5.443072406   9.239966368
H        4.914735883  15.596954988   2.760894908
H        3.259075883  17.581545012   8.825444908
H       -0.522665883   6.522045012   9.368225092
O       -0.088398044  19.130295691  12.013895379
O        1.567261956  14.048204309   5.949335379
O        4.480468044   2.988704309   0.115224621
H        3.697094118  19.222526011   0.835810125
H        2.041434118  13.955973989   6.900360125
H        0.694985882   2.896473989  11.293309875
O        4.365958379  18.798080486   2.006284067
O        2.710298379  14.380419514   8.070844067
O        0.026111621   3.320919514  10.122835933
C        4.034757922  16.961065478   0.545032141
C        2.379097922  16.217434522   6.609592141
C        0.357312078   5.157934522  11.584087859
C        2.870767163   1.935150290   3.380421965
C        1.215107163   9.124349710   9.444981965
C        1.521302837  20.183849710   8.748698035
H        2.022804614   2.046889991   4.075827071
H        0.367144614   9.012610009  10.140387071
H        2.369265386  20.072110009   8.053292929
H        2.589456943   2.336324869   2.397648967
H        0.933796943   8.723175131   8.462208967
H        1.802623057  19.782675131   9.731471033
H        3.727014693   2.510514549   3.767320925
H        2.071354693   8.548985451   9.831880925
H        0.665065307  19.608485451   8.361789075
C        2.975695875  22.034127752   1.940575173
C        1.320035875  11.144372248   8.005135173
C        1.416374125   0.084872248  10.188534827
H        3.309277525  20.991748042   1.969712125
H        1.653617525  12.186751958   8.034272125
H        1.082792475   1.127251958  10.159397875
H        1.897323175  22.070557941   1.709163354
H        0.241663175  11.107942059   7.773713354
H        2.494746825   0.048442059  10.419956646
C       -2.378083674   0.709391403  10.523242177
C       -0.722423674  10.350108597   4.458682177
C        6.770153674  21.409608597   1.605877823
C        4.552511368   1.235939154   8.337931791
C        6.208171368   9.823560846   2.273371791
C       -0.160431368  20.883060846   3.791188209
H        4.188040288   1.980282672   7.629847029
H        5.843700288   9.079217328   1.565287029
H        0.204029712  20.138717328   4.499262971
C        4.843677564   1.663124549   9.627581671
C        6.499347564   9.396375451   3.563021671
C       -0.451607564  20.455875451   2.501528329
H        4.722488332   2.704801435   9.929980708
H        6.378148332   8.354698565   3.865420708
H       -0.330408332  19.414198565   2.199139292
C        3.720505830  21.950184660   4.259016027
C        2.064835830  11.228315340  10.323566027
C        0.671574170   0.168815340   7.870103973
H        3.981846623  20.914146078   4.024312743
H        2.326186623  12.264353922  10.088872743
H        0.410223377   1.204853922   8.104797257
C       -2.191591734  21.498649032  10.202313631
C       -0.535931734  11.679850968   4.137753631
C        6.583671734   0.620350968   1.926796369
H       -1.792768003  20.789710811  10.931755400
H       -0.137108003  12.388789189   4.867195400
H        6.184838003   1.329289189   1.197364600
C        5.233877908  21.087621278   8.886930582
C        6.889547908  12.090878722   2.822370582
C       -0.841807908   1.031378722   3.242179418
C        4.732864688  22.021005491   7.922930566
C        6.388534688  11.157494509   1.858370566
C       -0.340794688   0.097994509   4.206189434
N        3.229409421   0.532193042   3.235959737
N        1.573749421  10.527306958   9.300519737
N        1.162660579  21.586806958   8.893160263
C        4.474926534  21.547803447   6.543056044
C        6.130586534  11.630696553   0.478506044
C       -0.082846534   0.571196553   5.586053956
O       -2.247162330  19.807491291   8.544432702
O       -0.591502330  13.371008709   2.479872702
O        6.639232330   2.311508709   3.584687298
H        5.201361384  19.804605474   7.503291769
H        6.857021384  13.373894526   1.438731769
H       -0.809281384   2.314394526   4.625818231
F       -2.056663195   1.107228656  11.801542240
F       -0.401003195   9.952271344   5.736982240
F        6.448733195  21.011771344   0.327577760
O        4.750954142  20.310100080   6.278909701
O        6.406614142  12.868399920   0.214349701
O       -0.358874142   1.808899920   5.850210299
C       -0.076289770  16.021222863  10.177933939
C        1.579370230  17.157277137   4.113373939
C        4.468369770   6.097777137   1.951186061
C        3.935830034   0.291532866   5.545349076
C        2.280170034  10.767967134  11.609909076
C        0.456249966  21.827467134   6.583760924
H        3.681877122   1.316618391   5.803572231
H        2.026217122   9.742881609  11.868122231
H        0.710192878  20.802381609   6.325547769



     Writing output data file 2hp_2.save
     charge density from previous step

     Check: negative/imaginary core charge=   -0.000670    0.000000

     Writing output data file 2hp_2.save
 
     init_run     :    576.03s CPU    582.20s WALL (       1 calls)
     electrons    : 546190.66s CPU 549157.65s WALL (      50 calls)
     update_pot   :    203.61s CPU    204.41s WALL (      50 calls)
     forces       :  11602.71s CPU  11674.93s WALL (      50 calls)

     Called by init_run:
     wfcinit      :    556.98s CPU    562.20s WALL (       1 calls)
     potinit      :      7.28s CPU      7.33s WALL (       1 calls)

     Called by electrons:
     c_bands      : 497012.37s CPU 499419.73s WALL (     561 calls)
     sum_band     :  46090.51s CPU  46429.11s WALL (     561 calls)
     v_of_rho     :    447.70s CPU    449.18s WALL (     612 calls)
     newd         :   1512.72s CPU   1739.99s WALL (     612 calls)
     mix_rho      :     83.42s CPU     87.75s WALL (     561 calls)

     Called by c_bands:
     init_us_2    :   1574.60s CPU   1580.69s WALL (    4692 calls)
     cegterg      : 490799.57s CPU 493171.57s WALL (    2244 calls)

     Called by sum_band:
     sum_band:bec :     10.75s CPU     10.88s WALL (    2244 calls)
     addusdens    :   1521.12s CPU   1741.51s WALL (     561 calls)

     Called by *egterg:
     h_psi        : 249477.89s CPU 250098.05s WALL (   11437 calls)
     s_psi        :  75658.64s CPU  75808.21s WALL (   11437 calls)
     g_psi        :    470.96s CPU    472.16s WALL (    9189 calls)
     cdiaghg      :  16820.80s CPU  16856.16s WALL (   11237 calls)

     Called by h_psi:
     h_psi:pot    : 248711.53s CPU 249318.12s WALL (   11437 calls)
     h_psi:calbec :  70659.48s CPU  70809.41s WALL (   11437 calls)
     vloc_psi     : 102323.01s CPU 102629.50s WALL (   11437 calls)
     add_vuspsi   :  75728.89s CPU  75878.96s WALL (   11437 calls)

     General routines
     calbec       : 102790.57s CPU 103005.73s WALL (   14481 calls)
     fft          :    246.59s CPU    247.83s WALL (    8406 calls)
     fftw         : 104824.77s CPU 105118.38s WALL ( 4969610 calls)
     davcio       :      0.02s CPU      1.52s WALL (       4 calls)
 
     Parallel routines
     fft_scatter  :  11726.80s CPU  11774.09s WALL ( 4978016 calls)
 
     PWSCF        :     6d   11h12m CPU        6d   12h 4m WALL

 
   This run was terminated on:   2:15:10  25Oct2017            

=------------------------------------------------------------------------------=
   JOB DONE.
=------------------------------------------------------------------------------=
