 Entering Gaussian System, Link 0=g09
 Input=2hp_2_k846-mega_dimer_1.com
 Output=2hp_2_k846-mega_dimer_1.out
 Initial command:
 /share/apps/gaussian/g09_D01/g09/l1.exe "/tmp/160991.1.all.q/Gau-12096.inp" -scrdir="/tmp/160991.1.all.q/"
 Entering Link 1 = /share/apps/gaussian/g09_D01/g09/l1.exe PID=     12097.
  
 Copyright (c) 1988,1990,1992,1993,1995,1998,2003,2009,2013,
            Gaussian, Inc.  All Rights Reserved.
  
 This is part of the Gaussian(R) 09 program.  It is based on
 the Gaussian(R) 03 system (copyright 2003, Gaussian, Inc.),
 the Gaussian(R) 98 system (copyright 1998, Gaussian, Inc.),
 the Gaussian(R) 94 system (copyright 1995, Gaussian, Inc.),
 the Gaussian 92(TM) system (copyright 1992, Gaussian, Inc.),
 the Gaussian 90(TM) system (copyright 1990, Gaussian, Inc.),
 the Gaussian 88(TM) system (copyright 1988, Gaussian, Inc.),
 the Gaussian 86(TM) system (copyright 1986, Carnegie Mellon
 University), and the Gaussian 82(TM) system (copyright 1983,
 Carnegie Mellon University). Gaussian is a federally registered
 trademark of Gaussian, Inc.
  
 This software contains proprietary and confidential information,
 including trade secrets, belonging to Gaussian, Inc.
  
 This software is provided under written license and may be
 used, copied, transmitted, or stored only in accord with that
 written license.
  
 The following legend is applicable only to US Government
 contracts under FAR:
  
                    RESTRICTED RIGHTS LEGEND
  
 Use, reproduction and disclosure by the US Government is
 subject to restrictions as set forth in subparagraphs (a)
 and (c) of the Commercial Computer Software - Restricted
 Rights clause in FAR 52.227-19.
  
 Gaussian, Inc.
 340 Quinnipiac St., Bldg. 40, Wallingford CT 06492
  
  
 ---------------------------------------------------------------
 Warning -- This program may not be used in any manner that
 competes with the business of Gaussian, Inc. or will provide
 assistance to any competitor of Gaussian, Inc.  The licensee
 of this program is prohibited from giving any competitor of
 Gaussian, Inc. access to this program.  By using this program,
 the user acknowledges that Gaussian, Inc. is engaged in the
 business of creating and licensing software in the field of
 computational chemistry and represents and warrants to the
 licensee that it is not a competitor of Gaussian, Inc. and that
 it will not use this program in any manner prohibited above.
 ---------------------------------------------------------------
  

 Cite this work as:
 Gaussian 09, Revision D.01,
 M. J. Frisch, G. W. Trucks, H. B. Schlegel, G. E. Scuseria, 
 M. A. Robb, J. R. Cheeseman, G. Scalmani, V. Barone, B. Mennucci, 
 G. A. Petersson, H. Nakatsuji, M. Caricato, X. Li, H. P. Hratchian, 
 A. F. Izmaylov, J. Bloino, G. Zheng, J. L. Sonnenberg, M. Hada, 
 M. Ehara, K. Toyota, R. Fukuda, J. Hasegawa, M. Ishida, T. Nakajima, 
 Y. Honda, O. Kitao, H. Nakai, T. Vreven, J. A. Montgomery, Jr., 
 J. E. Peralta, F. Ogliaro, M. Bearpark, J. J. Heyd, E. Brothers, 
 K. N. Kudin, V. N. Staroverov, T. Keith, R. Kobayashi, J. Normand, 
 K. Raghavachari, A. Rendell, J. C. Burant, S. S. Iyengar, J. Tomasi, 
 M. Cossi, N. Rega, J. M. Millam, M. Klene, J. E. Knox, J. B. Cross, 
 V. Bakken, C. Adamo, J. Jaramillo, R. Gomperts, R. E. Stratmann, 
 O. Yazyev, A. J. Austin, R. Cammi, C. Pomelli, J. W. Ochterski, 
 R. L. Martin, K. Morokuma, V. G. Zakrzewski, G. A. Voth, 
 P. Salvador, J. J. Dannenberg, S. Dapprich, A. D. Daniels, 
 O. Farkas, J. B. Foresman, J. V. Ortiz, J. Cioslowski, 
 and D. J. Fox, Gaussian, Inc., Wallingford CT, 2013.
 
 ******************************************
 Gaussian 09:  ES64L-G09RevD.01 24-Apr-2013
                 2-Nov-2017 
 ******************************************
 %chk=2hp_2_k846-mega_dimer_1.chk
 %nproc=4
 Will use up to    4 processors via shared memory.
 %mem=28GB
 ------------------------------------------
 #p wb97xd 6-311++G** td=(nstates=4) nosymm
 ------------------------------------------
 1/38=1/1;
 2/12=2,15=1,17=6,18=5,40=1/2;
 3/5=4,6=6,7=1111,11=9,16=1,25=1,30=1,74=-58/1,2,8,3;
 4//1;
 5/5=2,38=5/2;
 8/6=1,10=2,108=4/1;
 9/41=4,42=1,70=2/14;
 6/7=2,8=2,9=2,10=2/1;
 99/5=1,9=1/99;
 Leave Link    1 at Thu Nov  2 21:53:59 2017, MaxMem=  3758096384 cpu:         0.4
 (Enter /share/apps/gaussian/g09_D01/g09/l101.exe)
 -----
 Title
 -----
 Symbolic Z-matrix:
 Charge =  0 Multiplicity = 1
 C                     0.71127  -10.35207  -4.45507 
 C                     0.52484  -11.68284  -4.13584 
 F                     0.40063  -9.95253  -5.73574 
 C                     1.18753  -9.39963  -3.55425 
 H                     0.13004  -12.39446  -4.86514 
 C                     0.80415  -12.09543  -2.82101 
 C                     1.47896  -9.82964  -2.26586 
 H                     1.30651  -8.35535  -3.84794 
 O                     0.58742  -13.37763  -2.48323 
 C                     1.30239  -11.16437  -1.85418 
 H                     1.83829  -9.08557  -1.55482 
 H                     0.84373  -13.38518  -1.44358 
 C                     1.56619  -11.64245  -0.47724 
 O                     1.29496  -12.8818  -0.21655 
 C                     2.10687  -10.78265   0.52114 
 C                     2.32462  -11.24733   1.80557 
 H                     2.35688  -9.75622   0.26533 
 H                     2.06524  -12.28459   2.03828 
 N                     2.81631  -10.54692   2.8287 
 C                     3.17373  -9.14366   2.68451 
 C                     3.06672  -11.16508   4.12427 
 H                     4.01649  -9.03141   1.98236 
 H                     3.46263  -8.74604   3.66654 
 H                     2.31374  -8.56827   2.30538 
 H                     2.73056  -12.20673   4.09445 
 H                     2.52471  -10.61698   4.91442 
 H                     4.14466  -11.13095   4.35924 
 H                     1.24145  -14.78105  -6.05665 
 C                     1.91718  -15.10963  -5.2534 
 H                     2.94249  -14.77658  -5.50093 
 H                     1.59584  -14.63777  -4.31469 
 N                     1.85714  -16.56441  -5.14808 
 C                     1.41345  -17.26935  -6.3432 
 C                     2.27276  -17.22426  -4.0654 
 H                     1.40319  -18.34914  -6.15443 
 H                     0.40232  -16.92856  -6.62273 
 H                     2.08786  -17.05069  -7.1904 
 H                     2.2391   -18.3148  -4.14849 
 C                     2.74924  -16.67728  -2.88485 
 C                     3.23823  -17.52145  -1.8451 
 H                     2.78601  -15.59756  -2.7598 
 O                     3.33419  -18.79839  -1.99647 
 C                     3.66984  -16.96087  -0.54083 
 H                     3.99992  -19.23076  -0.81452 
 C                     3.45464  -15.6238  -0.15909 
 C                     4.28889  -17.835    0.41063 
 O                     4.47037  -19.13385   0.13394 
 H                     2.92504  -14.94557  -0.82647 
 C                     3.8455   -15.13117   1.0793 
 C                     4.70323  -17.34642   1.6615 
 H                     3.62491  -14.10898   1.3874 
 C                     4.4694   -16.0185   1.95282 
 H                     5.19002  -18.01227   2.37698 
 F                     4.85556  -15.55131   3.18912 
 
 NAtoms=     54 NQM=       54 NQMF=       0 NMMI=      0 NMMIF=      0
                NMic=       0 NMicF=      0.
                    Isotopes and Nuclear Properties:
 (Nuclear quadrupole moments (NQMom) in fm**2, nuclear magnetic moments (NMagM)
  in nuclear magnetons)

  Atom         1           2           3           4           5           6           7           8           9          10
 IAtWgt=          12          12          19          12           1          12          12           1          16          12
 AtmWgt=  12.0000000  12.0000000  18.9984033  12.0000000   1.0078250  12.0000000  12.0000000   1.0078250  15.9949146  12.0000000
 NucSpn=           0           0           1           0           1           0           0           1           0           0
 AtZEff=   0.0000000   0.0000000   0.0000000   0.0000000   0.0000000   0.0000000   0.0000000   0.0000000   0.0000000   0.0000000
 NQMom=    0.0000000   0.0000000   0.0000000   0.0000000   0.0000000   0.0000000   0.0000000   0.0000000   0.0000000   0.0000000
 NMagM=    0.0000000   0.0000000   2.6288670   0.0000000   2.7928460   0.0000000   0.0000000   2.7928460   0.0000000   0.0000000
 AtZNuc=   6.0000000   6.0000000   9.0000000   6.0000000   1.0000000   6.0000000   6.0000000   1.0000000   8.0000000   6.0000000

  Atom        11          12          13          14          15          16          17          18          19          20
 IAtWgt=           1           1          12          16          12          12           1           1          14          12
 AtmWgt=   1.0078250   1.0078250  12.0000000  15.9949146  12.0000000  12.0000000   1.0078250   1.0078250  14.0030740  12.0000000
 NucSpn=           1           1           0           0           0           0           1           1           2           0
 AtZEff=   0.0000000   0.0000000   0.0000000   0.0000000   0.0000000   0.0000000   0.0000000   0.0000000   0.0000000   0.0000000
 NQMom=    0.0000000   0.0000000   0.0000000   0.0000000   0.0000000   0.0000000   0.0000000   0.0000000   2.0440000   0.0000000
 NMagM=    2.7928460   2.7928460   0.0000000   0.0000000   0.0000000   0.0000000   2.7928460   2.7928460   0.4037610   0.0000000
 AtZNuc=   1.0000000   1.0000000   6.0000000   8.0000000   6.0000000   6.0000000   1.0000000   1.0000000   7.0000000   6.0000000

  Atom        21          22          23          24          25          26          27          28          29          30
 IAtWgt=          12           1           1           1           1           1           1           1          12           1
 AtmWgt=  12.0000000   1.0078250   1.0078250   1.0078250   1.0078250   1.0078250   1.0078250   1.0078250  12.0000000   1.0078250
 NucSpn=           0           1           1           1           1           1           1           1           0           1
 AtZEff=   0.0000000   0.0000000   0.0000000   0.0000000   0.0000000   0.0000000   0.0000000   0.0000000   0.0000000   0.0000000
 NQMom=    0.0000000   0.0000000   0.0000000   0.0000000   0.0000000   0.0000000   0.0000000   0.0000000   0.0000000   0.0000000
 NMagM=    0.0000000   2.7928460   2.7928460   2.7928460   2.7928460   2.7928460   2.7928460   2.7928460   0.0000000   2.7928460
 AtZNuc=   6.0000000   1.0000000   1.0000000   1.0000000   1.0000000   1.0000000   1.0000000   1.0000000   6.0000000   1.0000000

  Atom        31          32          33          34          35          36          37          38          39          40
 IAtWgt=           1          14          12          12           1           1           1           1          12          12
 AtmWgt=   1.0078250  14.0030740  12.0000000  12.0000000   1.0078250   1.0078250   1.0078250   1.0078250  12.0000000  12.0000000
 NucSpn=           1           2           0           0           1           1           1           1           0           0
 AtZEff=   0.0000000   0.0000000   0.0000000   0.0000000   0.0000000   0.0000000   0.0000000   0.0000000   0.0000000   0.0000000
 NQMom=    0.0000000   2.0440000   0.0000000   0.0000000   0.0000000   0.0000000   0.0000000   0.0000000   0.0000000   0.0000000
 NMagM=    2.7928460   0.4037610   0.0000000   0.0000000   2.7928460   2.7928460   2.7928460   2.7928460   0.0000000   0.0000000
 AtZNuc=   1.0000000   7.0000000   6.0000000   6.0000000   1.0000000   1.0000000   1.0000000   1.0000000   6.0000000   6.0000000

  Atom        41          42          43          44          45          46          47          48          49          50
 IAtWgt=           1          16          12           1          12          12          16           1          12          12
 AtmWgt=   1.0078250  15.9949146  12.0000000   1.0078250  12.0000000  12.0000000  15.9949146   1.0078250  12.0000000  12.0000000
 NucSpn=           1           0           0           1           0           0           0           1           0           0
 AtZEff=   0.0000000   0.0000000   0.0000000   0.0000000   0.0000000   0.0000000   0.0000000   0.0000000   0.0000000   0.0000000
 NQMom=    0.0000000   0.0000000   0.0000000   0.0000000   0.0000000   0.0000000   0.0000000   0.0000000   0.0000000   0.0000000
 NMagM=    2.7928460   0.0000000   0.0000000   2.7928460   0.0000000   0.0000000   0.0000000   2.7928460   0.0000000   0.0000000
 AtZNuc=   1.0000000   8.0000000   6.0000000   1.0000000   6.0000000   6.0000000   8.0000000   1.0000000   6.0000000   6.0000000

  Atom        51          52          53          54
 IAtWgt=           1          12           1          19
 AtmWgt=   1.0078250  12.0000000   1.0078250  18.9984033
 NucSpn=           1           0           1           1
 AtZEff=   0.0000000   0.0000000   0.0000000   0.0000000
 NQMom=    0.0000000   0.0000000   0.0000000   0.0000000
 NMagM=    2.7928460   0.0000000   2.7928460   2.6288670
 AtZNuc=   1.0000000   6.0000000   1.0000000   9.0000000
 Leave Link  101 at Thu Nov  2 21:53:59 2017, MaxMem=  3758096384 cpu:         0.4
 (Enter /share/apps/gaussian/g09_D01/g09/l202.exe)
 Symmetry turned off by external request.
 Stoichiometry    C22H24F2N2O4
 Framework group  C1[X(C22H24F2N2O4)]
 Deg. of freedom   156
 Full point group                 C1      NOp   1
                          Input orientation:                          
 ---------------------------------------------------------------------
 Center     Atomic      Atomic             Coordinates (Angstroms)
 Number     Number       Type             X           Y           Z
 ---------------------------------------------------------------------
      1          6           0        0.711266  -10.352067   -4.455065
      2          6           0        0.524838  -11.682836   -4.135836
      3          9           0        0.400627   -9.952529   -5.735743
      4          6           0        1.187527   -9.399635   -3.554250
      5          1           0        0.130037  -12.394456   -4.865141
      6          6           0        0.804151  -12.095430   -2.821006
      7          6           0        1.478955   -9.829641   -2.265862
      8          1           0        1.306509   -8.355346   -3.847943
      9          8           0        0.587417  -13.377633   -2.483228
     10          6           0        1.302394  -11.164375   -1.854181
     11          1           0        1.838291   -9.085565   -1.554816
     12          1           0        0.843731  -13.385183   -1.443578
     13          6           0        1.566194  -11.642445   -0.477235
     14          8           0        1.294958  -12.881802   -0.216549
     15          6           0        2.106870  -10.782651    0.521136
     16          6           0        2.324617  -11.247330    1.805567
     17          1           0        2.356875   -9.756222    0.265331
     18          1           0        2.065237  -12.284592    2.038284
     19          7           0        2.816311  -10.546919    2.828701
     20          6           0        3.173727   -9.143661    2.684511
     21          6           0        3.066717  -11.165084    4.124274
     22          1           0        4.016486   -9.031414    1.982362
     23          1           0        3.462633   -8.746043    3.666542
     24          1           0        2.313741   -8.568269    2.305379
     25          1           0        2.730560  -12.206731    4.094450
     26          1           0        2.524709  -10.616978    4.914416
     27          1           0        4.144656  -11.130952    4.359239
     28          1           0        1.241451  -14.781049   -6.056648
     29          6           0        1.917182  -15.109626   -5.253396
     30          1           0        2.942488  -14.776579   -5.500933
     31          1           0        1.595839  -14.637766   -4.314693
     32          7           0        1.857142  -16.564408   -5.148080
     33          6           0        1.413453  -17.269346   -6.343196
     34          6           0        2.272759  -17.224258   -4.065401
     35          1           0        1.403192  -18.349141   -6.154426
     36          1           0        0.402315  -16.928565   -6.622727
     37          1           0        2.087858  -17.050686   -7.190404
     38          1           0        2.239104  -18.314801   -4.148492
     39          6           0        2.749244  -16.677280   -2.884851
     40          6           0        3.238233  -17.521455   -1.845103
     41          1           0        2.786011  -15.597562   -2.759796
     42          8           0        3.334190  -18.798391   -1.996470
     43          6           0        3.669842  -16.960867   -0.540828
     44          1           0        3.999924  -19.230762   -0.814521
     45          6           0        3.454638  -15.623796   -0.159088
     46          6           0        4.288887  -17.834998    0.410626
     47          8           0        4.470365  -19.133853    0.133937
     48          1           0        2.925038  -14.945568   -0.826469
     49          6           0        3.845500  -15.131172    1.079298
     50          6           0        4.703234  -17.346415    1.661499
     51          1           0        3.624914  -14.108983    1.387398
     52          6           0        4.469404  -16.018499    1.952822
     53          1           0        5.190022  -18.012269    2.376983
     54          9           0        4.855562  -15.551308    3.189121
 ---------------------------------------------------------------------
 Rotational constants (GHZ):      0.1231635      0.1086201      0.0590731
 Leave Link  202 at Thu Nov  2 21:53:59 2017, MaxMem=  3758096384 cpu:         0.0
 (Enter /share/apps/gaussian/g09_D01/g09/l301.exe)
 Standard basis: 6-311++G(d,p) (5D, 7F)
 Ernie: Thresh=  0.10000D-02 Tol=  0.10000D-05 Strict=F.
   828 basis functions,  1296 primitive gaussians,   858 cartesian basis functions
   110 alpha electrons      110 beta electrons
       nuclear repulsion energy      2792.4005133783 Hartrees.
 IExCor= 4639 DFT=T Ex+Corr=wB97XD ExCW=0 ScaHFX=  1.000000
 ScaDFX=  1.000000  1.000000  1.000000  1.000000 ScalE2=  1.000000  1.000000
 IRadAn=      0 IRanWt=     -1 IRanGd=            0 ICorTp=0 IEmpDi=121
  HFx wShort=  0.000000 wLong=  0.200000 cFull=  0.222036 cShort=  0.000000 cLong=  0.777964
  DFx wShort=  0.000000 wLong=  0.200000 cFull=  0.000000 cShort=  0.000000 cLong=  1.000000
 NAtoms=   54 NActive=   54 NUniq=   54 SFac= 1.00D+00 NAtFMM=   60 NAOKFM=F Big=F
 Integral buffers will be    131072 words long.
 Raffenetti 1 integral format.
 Two-electron integral symmetry is turned off.
 R6Disp:  Grimme-D2 Dispersion energy=       -0.0368802065 Hartrees.
 Nuclear repulsion after empirical dispersion term =     2792.3636331718 Hartrees.
 Leave Link  301 at Thu Nov  2 21:53:59 2017, MaxMem=  3758096384 cpu:         0.1
 (Enter /share/apps/gaussian/g09_D01/g09/l302.exe)
 NPDir=0 NMtPBC=     1 NCelOv=     1 NCel=       1 NClECP=     1 NCelD=      1
         NCelK=      1 NCelE2=     1 NClLst=     1 CellRange=     0.0.
 One-electron integrals computed using PRISM.
 NBasis=   828 RedAO= T EigKep=  1.34D-06  NBF=   828
 NBsUse=   820 1.00D-06 EigRej=  9.44D-07 NBFU=   820
 Precomputing XC quadrature grid using
 IXCGrd= 4 IRadAn=           0 IRanWt=          -1 IRanGd=           0 AccXCQ= 0.00D+00.
 Generated NRdTot=       0 NPtTot=           0 NUsed=           0 NTot=          32
 NSgBfM=   830   831   831   831   831 MxSgAt=    54 MxSgA2=    54.
 Leave Link  302 at Thu Nov  2 21:54:01 2017, MaxMem=  3758096384 cpu:         7.7
 (Enter /share/apps/gaussian/g09_D01/g09/l308.exe)
 Leave Link  308 at Thu Nov  2 21:54:01 2017, MaxMem=  3758096384 cpu:         0.8
 (Enter /share/apps/gaussian/g09_D01/g09/l303.exe)
 DipDrv:  MaxL=1.
 Leave Link  303 at Thu Nov  2 21:54:01 2017, MaxMem=  3758096384 cpu:         0.5
 (Enter /share/apps/gaussian/g09_D01/g09/l401.exe)
 ExpMin= 3.60D-02 ExpMax= 1.14D+04 ExpMxC= 1.72D+03 IAcc=3 IRadAn=         5 AccDes= 0.00D+00
 Harris functional with IExCor= 4639 and IRadAn=       5 diagonalized for initial guess.
 HarFok:  IExCor= 4639 AccDes= 0.00D+00 IRadAn=         5 IDoV= 1 UseB2=F ITyADJ=14
 ICtDFT=  3500011 ScaDFX=  1.000000  1.000000  1.000000  1.000000
 FoFCou: FMM=F IPFlag=           0 FMFlag=      100000 FMFlg1=           0
         NFxFlg=           0 DoJE=T BraDBF=F KetDBF=T FulRan=T
         wScrn=  0.000000 ICntrl=     500 IOpCl=  0 I1Cent=   200000004 NGrid=           0
         NMat0=    1 NMatS0=      1 NMatT0=    0 NMatD0=    1 NMtDS0=    0 NMtDT0=    0
 Symmetry not used in FoFCou.
 Harris En= -1402.78961885203    
 JPrj=0 DoOrth=F DoCkMO=F.
 Leave Link  401 at Thu Nov  2 21:54:26 2017, MaxMem=  3758096384 cpu:        97.2
 (Enter /share/apps/gaussian/g09_D01/g09/l502.exe)
 Closed shell SCF:
 Using DIIS extrapolation, IDIIS=  1040.
 Two-electron integral symmetry not used.
 IVT=     2237446 IEndB=     2237446 NGot=  3758096384 MDV=  3756612601
 LenX=  3756612601 LenY=  3755875579
 Requested convergence on RMS density matrix=1.00D-08 within 128 cycles.
 Requested convergence on MAX density matrix=1.00D-06.
 Requested convergence on             energy=1.00D-06.
 No special actions if energy rises.
 Fock matrices will be formed incrementally for  20 cycles.

 Cycle   1  Pass 1  IDiag  1:
 FoFJK:  IHMeth= 1 ICntrl=       0 DoSepK=T KAlg= 0 I1Cent=   0 FoldK=F
 IRaf=         1 NMat=   1 IRICut=       1 DoRegI=T DoRafI=F ISym2E= 0.
 FoFCou: FMM=F IPFlag=           0 FMFlag=      100000 FMFlg1=           0
         NFxFlg=           0 DoJE=T BraDBF=F KetDBF=F FulRan=T
         wScrn=  0.000000 ICntrl=     500 IOpCl=  0 I1Cent=           0 NGrid=           0
         NMat0=    1 NMatS0=      1 NMatT0=    0 NMatD0=    1 NMtDS0=    0 NMtDT0=    0
 Symmetry not used in FoFCou.
 E= -1462.08224937569    
 DIIS: error= 7.04D-02 at cycle   1 NSaved=   1.
 NSaved= 1 IEnMin= 1 EnMin= -1462.08224937569     IErMin= 1 ErrMin= 7.04D-02
 ErrMax= 7.04D-02  0.00D+00 EMaxC= 1.00D-01 BMatC= 3.52D+00 BMatP= 3.52D+00
 IDIUse=3 WtCom= 2.96D-01 WtEn= 7.04D-01
 Coeff-Com:  0.100D+01
 Coeff-En:   0.100D+01
 Coeff:      0.100D+01
 Gap=     0.287 Goal=   None    Shift=    0.000
 GapD=    0.287 DampG=1.000 DampE=0.500 DampFc=0.5000 IDamp=-1.
 Damping current iteration by 5.00D-01
 RMSDP=2.00D-02 MaxDP=2.95D+00              OVMax= 1.84D-01

 Cycle   2  Pass 1  IDiag  1:
 RMSU=  3.83D-03    CP:  8.39D-01
 E= -1462.40312330974     Delta-E=       -0.320873934046 Rises=F Damp=T
 DIIS: error= 3.04D-02 at cycle   2 NSaved=   2.
 NSaved= 2 IEnMin= 2 EnMin= -1462.40312330974     IErMin= 2 ErrMin= 3.04D-02
 ErrMax= 3.04D-02  0.00D+00 EMaxC= 1.00D-01 BMatC= 6.42D-01 BMatP= 3.52D+00
 IDIUse=3 WtCom= 6.96D-01 WtEn= 3.04D-01
 Coeff-Com: -0.356D+00 0.136D+01
 Coeff-En:   0.184D-02 0.998D+00
 Coeff:     -0.248D+00 0.125D+01
 Gap=     0.278 Goal=   None    Shift=    0.000
 RMSDP=9.51D-03 MaxDP=1.12D+00 DE=-3.21D-01 OVMax= 1.75D-01

 Cycle   3  Pass 1  IDiag  1:
 RMSU=  4.10D-03    CP:  6.90D-01  1.10D+00
 E= -1462.65092085651     Delta-E=       -0.247797546775 Rises=F Damp=F
 DIIS: error= 1.32D-02 at cycle   3 NSaved=   3.
 NSaved= 3 IEnMin= 3 EnMin= -1462.65092085651     IErMin= 3 ErrMin= 1.32D-02
 ErrMax= 1.32D-02  0.00D+00 EMaxC= 1.00D-01 BMatC= 1.94D-01 BMatP= 6.42D-01
 IDIUse=3 WtCom= 8.68D-01 WtEn= 1.32D-01
 Coeff-Com: -0.269D+00 0.598D+00 0.671D+00
 Coeff-En:   0.000D+00 0.000D+00 0.100D+01
 Coeff:     -0.234D+00 0.519D+00 0.715D+00
 Gap=     0.275 Goal=   None    Shift=    0.000
 RMSDP=4.46D-03 MaxDP=9.45D-01 DE=-2.48D-01 OVMax= 7.01D-02

 Cycle   4  Pass 1  IDiag  1:
 RMSU=  1.77D-03    CP:  6.27D-01  1.40D+00  6.10D-01
 E= -1462.77472705847     Delta-E=       -0.123806201956 Rises=F Damp=F
 DIIS: error= 3.66D-03 at cycle   4 NSaved=   4.
 NSaved= 4 IEnMin= 4 EnMin= -1462.77472705847     IErMin= 4 ErrMin= 3.66D-03
 ErrMax= 3.66D-03  0.00D+00 EMaxC= 1.00D-01 BMatC= 1.81D-02 BMatP= 1.94D-01
 IDIUse=3 WtCom= 9.63D-01 WtEn= 3.66D-02
 Coeff-Com: -0.111D+00 0.243D+00 0.391D+00 0.478D+00
 Coeff-En:   0.000D+00 0.000D+00 0.272D-01 0.973D+00
 Coeff:     -0.107D+00 0.234D+00 0.378D+00 0.496D+00
 Gap=     0.257 Goal=   None    Shift=    0.000
 RMSDP=1.07D-03 MaxDP=2.16D-01 DE=-1.24D-01 OVMax= 1.84D-02

 Cycle   5  Pass 1  IDiag  1:
 RMSU=  3.86D-04    CP:  6.40D-01  1.36D+00  7.25D-01  7.32D-01
 E= -1462.78865948147     Delta-E=       -0.013932422998 Rises=F Damp=F
 DIIS: error= 5.66D-04 at cycle   5 NSaved=   5.
 NSaved= 5 IEnMin= 5 EnMin= -1462.78865948147     IErMin= 5 ErrMin= 5.66D-04
 ErrMax= 5.66D-04  0.00D+00 EMaxC= 1.00D-01 BMatC= 2.98D-04 BMatP= 1.81D-02
 IDIUse=3 WtCom= 9.94D-01 WtEn= 5.66D-03
 Coeff-Com: -0.194D-02 0.282D-02 0.492D-01 0.152D+00 0.798D+00
 Coeff-En:   0.000D+00 0.000D+00 0.000D+00 0.000D+00 0.100D+01
 Coeff:     -0.193D-02 0.280D-02 0.489D-01 0.151D+00 0.799D+00
 Gap=     0.257 Goal=   None    Shift=    0.000
 RMSDP=3.52D-04 MaxDP=8.34D-02 DE=-1.39D-02 OVMax= 3.57D-03

 Cycle   6  Pass 1  IDiag  1:
 RMSU=  1.83D-04    CP:  6.36D-01  1.35D+00  7.41D-01  8.30D-01  1.10D+00
 E= -1462.78893847957     Delta-E=       -0.000278998102 Rises=F Damp=F
 DIIS: error= 2.91D-04 at cycle   6 NSaved=   6.
 NSaved= 6 IEnMin= 6 EnMin= -1462.78893847957     IErMin= 6 ErrMin= 2.91D-04
 ErrMax= 2.91D-04  0.00D+00 EMaxC= 1.00D-01 BMatC= 7.62D-05 BMatP= 2.98D-04
 IDIUse=3 WtCom= 9.97D-01 WtEn= 2.91D-03
 Coeff-Com:  0.171D-01-0.377D-01-0.404D-01-0.166D-01 0.382D+00 0.695D+00
 Coeff-En:   0.000D+00 0.000D+00 0.000D+00 0.000D+00 0.000D+00 0.100D+01
 Coeff:      0.171D-01-0.376D-01-0.403D-01-0.166D-01 0.381D+00 0.696D+00
 Gap=     0.259 Goal=   None    Shift=    0.000
 RMSDP=9.63D-05 MaxDP=1.00D-02 DE=-2.79D-04 OVMax= 2.60D-03

 Cycle   7  Pass 1  IDiag  1:
 RMSU=  5.68D-05    CP:  6.35D-01  1.35D+00  7.46D-01  8.45D-01  1.21D+00
                    CP:  9.82D-01
 E= -1462.78902018114     Delta-E=       -0.000081701572 Rises=F Damp=F
 DIIS: error= 7.44D-05 at cycle   7 NSaved=   7.
 NSaved= 7 IEnMin= 7 EnMin= -1462.78902018114     IErMin= 7 ErrMin= 7.44D-05
 ErrMax= 7.44D-05  0.00D+00 EMaxC= 1.00D-01 BMatC= 6.19D-06 BMatP= 7.62D-05
 IDIUse=1 WtCom= 1.00D+00 WtEn= 0.00D+00
 Coeff-Com:  0.567D-02-0.122D-01-0.184D-01-0.230D-01 0.481D-01 0.237D+00
 Coeff-Com:  0.762D+00
 Coeff:      0.567D-02-0.122D-01-0.184D-01-0.230D-01 0.481D-01 0.237D+00
 Coeff:      0.762D+00
 Gap=     0.259 Goal=   None    Shift=    0.000
 RMSDP=3.71D-05 MaxDP=4.22D-03 DE=-8.17D-05 OVMax= 7.25D-04

 Cycle   8  Pass 1  IDiag  1:
 RMSU=  2.24D-05    CP:  6.35D-01  1.35D+00  7.46D-01  8.51D-01  1.25D+00
                    CP:  1.05D+00  1.05D+00
 E= -1462.78902904481     Delta-E=       -0.000008863665 Rises=F Damp=F
 DIIS: error= 5.43D-05 at cycle   8 NSaved=   8.
 NSaved= 8 IEnMin= 8 EnMin= -1462.78902904481     IErMin= 8 ErrMin= 5.43D-05
 ErrMax= 5.43D-05  0.00D+00 EMaxC= 1.00D-01 BMatC= 1.44D-06 BMatP= 6.19D-06
 IDIUse=1 WtCom= 1.00D+00 WtEn= 0.00D+00
 Coeff-Com: -0.339D-03 0.836D-03-0.120D-02-0.755D-02-0.382D-01-0.620D-02
 Coeff-Com:  0.344D+00 0.708D+00
 Coeff:     -0.339D-03 0.836D-03-0.120D-02-0.755D-02-0.382D-01-0.620D-02
 Coeff:      0.344D+00 0.708D+00
 Gap=     0.259 Goal=   None    Shift=    0.000
 RMSDP=1.08D-05 MaxDP=7.90D-04 DE=-8.86D-06 OVMax= 6.10D-04

 Cycle   9  Pass 1  IDiag  1:
 RMSU=  8.38D-06    CP:  6.34D-01  1.35D+00  7.46D-01  8.51D-01  1.27D+00
                    CP:  1.07D+00  1.09D+00  1.08D+00
 E= -1462.78903127951     Delta-E=       -0.000002234699 Rises=F Damp=F
 DIIS: error= 1.43D-05 at cycle   9 NSaved=   9.
 NSaved= 9 IEnMin= 9 EnMin= -1462.78903127951     IErMin= 9 ErrMin= 1.43D-05
 ErrMax= 1.43D-05  0.00D+00 EMaxC= 1.00D-01 BMatC= 2.62D-07 BMatP= 1.44D-06
 IDIUse=1 WtCom= 1.00D+00 WtEn= 0.00D+00
 Coeff-Com: -0.121D-02 0.265D-02 0.329D-02 0.141D-02-0.258D-01-0.474D-01
 Coeff-Com: -0.257D-01 0.270D+00 0.823D+00
 Coeff:     -0.121D-02 0.265D-02 0.329D-02 0.141D-02-0.258D-01-0.474D-01
 Coeff:     -0.257D-01 0.270D+00 0.823D+00
 Gap=     0.259 Goal=   None    Shift=    0.000
 RMSDP=7.35D-06 MaxDP=5.52D-04 DE=-2.23D-06 OVMax= 2.79D-04

 Cycle  10  Pass 1  IDiag  1:
 RMSU=  3.39D-06    CP:  6.34D-01  1.35D+00  7.46D-01  8.51D-01  1.27D+00
                    CP:  1.07D+00  1.10D+00  1.30D+00  1.31D+00
 E= -1462.78903175515     Delta-E=       -0.000000475644 Rises=F Damp=F
 DIIS: error= 8.25D-06 at cycle  10 NSaved=  10.
 NSaved=10 IEnMin=10 EnMin= -1462.78903175515     IErMin=10 ErrMin= 8.25D-06
 ErrMax= 8.25D-06  0.00D+00 EMaxC= 1.00D-01 BMatC= 2.78D-08 BMatP= 2.62D-07
 IDIUse=1 WtCom= 1.00D+00 WtEn= 0.00D+00
 Coeff-Com: -0.154D-03 0.326D-03 0.851D-03 0.134D-02-0.115D-02-0.933D-02
 Coeff-Com: -0.676D-01-0.149D-01 0.245D+00 0.845D+00
 Coeff:     -0.154D-03 0.326D-03 0.851D-03 0.134D-02-0.115D-02-0.933D-02
 Coeff:     -0.676D-01-0.149D-01 0.245D+00 0.845D+00
 Gap=     0.259 Goal=   None    Shift=    0.000
 RMSDP=3.23D-06 MaxDP=5.84D-04 DE=-4.76D-07 OVMax= 1.30D-04

 Cycle  11  Pass 1  IDiag  1:
 RMSU=  1.78D-06    CP:  6.35D-01  1.35D+00  7.47D-01  8.51D-01  1.27D+00
                    CP:  1.08D+00  1.11D+00  1.36D+00  1.46D+00  1.11D+00
 E= -1462.78903182194     Delta-E=       -0.000000066793 Rises=F Damp=F
 DIIS: error= 2.33D-06 at cycle  11 NSaved=  11.
 NSaved=11 IEnMin=11 EnMin= -1462.78903182194     IErMin=11 ErrMin= 2.33D-06
 ErrMax= 2.33D-06  0.00D+00 EMaxC= 1.00D-01 BMatC= 3.47D-09 BMatP= 2.78D-08
 IDIUse=1 WtCom= 1.00D+00 WtEn= 0.00D+00
 Coeff-Com:  0.883D-04-0.194D-03-0.117D-03 0.262D-03 0.283D-02 0.350D-02
 Coeff-Com: -0.177D-01-0.336D-01-0.525D-01 0.227D+00 0.870D+00
 Coeff:      0.883D-04-0.194D-03-0.117D-03 0.262D-03 0.283D-02 0.350D-02
 Coeff:     -0.177D-01-0.336D-01-0.525D-01 0.227D+00 0.870D+00
 Gap=     0.259 Goal=   None    Shift=    0.000
 RMSDP=1.21D-06 MaxDP=1.11D-04 DE=-6.68D-08 OVMax= 5.59D-05

 Cycle  12  Pass 1  IDiag  1:
 RMSU=  4.81D-07    CP:  6.35D-01  1.35D+00  7.47D-01  8.51D-01  1.27D+00
                    CP:  1.08D+00  1.11D+00  1.38D+00  1.51D+00  1.26D+00
                    CP:  1.14D+00
 E= -1462.78903183123     Delta-E=       -0.000000009290 Rises=F Damp=F
 DIIS: error= 9.99D-07 at cycle  12 NSaved=  12.
 NSaved=12 IEnMin=12 EnMin= -1462.78903183123     IErMin=12 ErrMin= 9.99D-07
 ErrMax= 9.99D-07  0.00D+00 EMaxC= 1.00D-01 BMatC= 5.06D-10 BMatP= 3.47D-09
 IDIUse=1 WtCom= 1.00D+00 WtEn= 0.00D+00
 Coeff-Com:  0.298D-04-0.652D-04-0.102D-03-0.412D-04 0.954D-03 0.194D-02
 Coeff-Com:  0.251D-02-0.665D-02-0.458D-01-0.427D-01 0.248D+00 0.841D+00
 Coeff:      0.298D-04-0.652D-04-0.102D-03-0.412D-04 0.954D-03 0.194D-02
 Coeff:      0.251D-02-0.665D-02-0.458D-01-0.427D-01 0.248D+00 0.841D+00
 Gap=     0.259 Goal=   None    Shift=    0.000
 RMSDP=4.80D-07 MaxDP=4.67D-05 DE=-9.29D-09 OVMax= 2.01D-05

 Cycle  13  Pass 1  IDiag  1:
 RMSU=  1.98D-07    CP:  6.35D-01  1.35D+00  7.47D-01  8.51D-01  1.27D+00
                    CP:  1.08D+00  1.11D+00  1.39D+00  1.53D+00  1.31D+00
                    CP:  1.23D+00  1.29D+00
 E= -1462.78903183267     Delta-E=       -0.000000001436 Rises=F Damp=F
 DIIS: error= 3.37D-07 at cycle  13 NSaved=  13.
 NSaved=13 IEnMin=13 EnMin= -1462.78903183267     IErMin=13 ErrMin= 3.37D-07
 ErrMax= 3.37D-07  0.00D+00 EMaxC= 1.00D-01 BMatC= 8.74D-11 BMatP= 5.06D-10
 IDIUse=1 WtCom= 1.00D+00 WtEn= 0.00D+00
 Coeff-Com: -0.373D-05 0.832D-05-0.166D-04-0.514D-04-0.113D-03 0.153D-03
 Coeff-Com:  0.363D-02 0.269D-02-0.710D-02-0.523D-01-0.477D-01 0.294D+00
 Coeff-Com:  0.807D+00
 Coeff:     -0.373D-05 0.832D-05-0.166D-04-0.514D-04-0.113D-03 0.153D-03
 Coeff:      0.363D-02 0.269D-02-0.710D-02-0.523D-01-0.477D-01 0.294D+00
 Coeff:      0.807D+00
 Gap=     0.259 Goal=   None    Shift=    0.000
 RMSDP=1.65D-07 MaxDP=1.52D-05 DE=-1.44D-09 OVMax= 9.17D-06

 Cycle  14  Pass 1  IDiag  1:
 RMSU=  8.43D-08    CP:  6.35D-01  1.35D+00  7.47D-01  8.51D-01  1.27D+00
                    CP:  1.08D+00  1.11D+00  1.39D+00  1.54D+00  1.33D+00
                    CP:  1.26D+00  1.43D+00  1.23D+00
 E= -1462.78903183279     Delta-E=       -0.000000000120 Rises=F Damp=F
 DIIS: error= 1.95D-07 at cycle  14 NSaved=  14.
 NSaved=14 IEnMin=14 EnMin= -1462.78903183279     IErMin=14 ErrMin= 1.95D-07
 ErrMax= 1.95D-07  0.00D+00 EMaxC= 1.00D-01 BMatC= 2.43D-11 BMatP= 8.74D-11
 IDIUse=1 WtCom= 1.00D+00 WtEn= 0.00D+00
 Coeff-Com: -0.431D-05 0.962D-05 0.409D-05-0.197D-04-0.190D-03-0.154D-03
 Coeff-Com:  0.127D-02 0.194D-02 0.439D-02-0.180D-01-0.552D-01 0.136D-01
 Coeff-Com:  0.365D+00 0.687D+00
 Coeff:     -0.431D-05 0.962D-05 0.409D-05-0.197D-04-0.190D-03-0.154D-03
 Coeff:      0.127D-02 0.194D-02 0.439D-02-0.180D-01-0.552D-01 0.136D-01
 Coeff:      0.365D+00 0.687D+00
 Gap=     0.259 Goal=   None    Shift=    0.000
 RMSDP=5.68D-08 MaxDP=4.74D-06 DE=-1.20D-10 OVMax= 2.99D-06

 Cycle  15  Pass 1  IDiag  1:
 RMSU=  3.09D-08    CP:  6.35D-01  1.35D+00  7.47D-01  8.51D-01  1.27D+00
                    CP:  1.08D+00  1.11D+00  1.39D+00  1.54D+00  1.33D+00
                    CP:  1.27D+00  1.45D+00  1.39D+00  1.17D+00
 E= -1462.78903183301     Delta-E=       -0.000000000221 Rises=F Damp=F
 DIIS: error= 6.57D-08 at cycle  15 NSaved=  15.
 NSaved=15 IEnMin=15 EnMin= -1462.78903183301     IErMin=15 ErrMin= 6.57D-08
 ErrMax= 6.57D-08  0.00D+00 EMaxC= 1.00D-01 BMatC= 4.32D-12 BMatP= 2.43D-11
 IDIUse=1 WtCom= 1.00D+00 WtEn= 0.00D+00
 Coeff-Com: -0.110D-05 0.239D-05 0.690D-05 0.461D-05-0.663D-04-0.102D-03
 Coeff-Com: -0.368D-03-0.708D-04 0.405D-02 0.428D-02-0.120D-01-0.655D-01
 Coeff-Com: -0.623D-01 0.243D+00 0.889D+00
 Coeff:     -0.110D-05 0.239D-05 0.690D-05 0.461D-05-0.663D-04-0.102D-03
 Coeff:     -0.368D-03-0.708D-04 0.405D-02 0.428D-02-0.120D-01-0.655D-01
 Coeff:     -0.623D-01 0.243D+00 0.889D+00
 Gap=     0.259 Goal=   None    Shift=    0.000
 RMSDP=4.96D-08 MaxDP=1.21D-05 DE=-2.21D-10 OVMax= 2.24D-06

 Cycle  16  Pass 1  IDiag  1:
 RMSU=  1.62D-08    CP:  6.35D-01  1.35D+00  7.47D-01  8.51D-01  1.27D+00
                    CP:  1.08D+00  1.11D+00  1.39D+00  1.54D+00  1.33D+00
                    CP:  1.27D+00  1.48D+00  1.50D+00  1.38D+00  1.06D+00
 E= -1462.78903183303     Delta-E=       -0.000000000015 Rises=F Damp=F
 DIIS: error= 3.44D-08 at cycle  16 NSaved=  16.
 NSaved=16 IEnMin=16 EnMin= -1462.78903183303     IErMin=16 ErrMin= 3.44D-08
 ErrMax= 3.44D-08  0.00D+00 EMaxC= 1.00D-01 BMatC= 8.67D-13 BMatP= 4.32D-12
 IDIUse=1 WtCom= 1.00D+00 WtEn= 0.00D+00
 Coeff-Com: -0.195D-06 0.368D-06 0.300D-05 0.534D-05-0.876D-06-0.263D-04
 Coeff-Com: -0.331D-03-0.398D-03 0.111D-02 0.449D-02 0.318D-02-0.263D-01
 Coeff-Com: -0.830D-01-0.173D-01 0.359D+00 0.760D+00
 Coeff:     -0.195D-06 0.368D-06 0.300D-05 0.534D-05-0.876D-06-0.263D-04
 Coeff:     -0.331D-03-0.398D-03 0.111D-02 0.449D-02 0.318D-02-0.263D-01
 Coeff:     -0.830D-01-0.173D-01 0.359D+00 0.760D+00
 Gap=     0.259 Goal=   None    Shift=    0.000
 RMSDP=1.27D-08 MaxDP=1.56D-06 DE=-1.55D-11 OVMax= 7.48D-07

 Cycle  17  Pass 1  IDiag  1:
 RMSU=  5.55D-09    CP:  6.35D-01  1.35D+00  7.47D-01  8.51D-01  1.27D+00
                    CP:  1.08D+00  1.11D+00  1.38D+00  1.54D+00  1.33D+00
                    CP:  1.27D+00  1.49D+00  1.52D+00  1.43D+00  1.20D+00
                    CP:  1.24D+00
 E= -1462.78903183284     Delta-E=        0.000000000184 Rises=F Damp=F
 DIIS: error= 1.24D-08 at cycle  17 NSaved=  17.
 NSaved=17 IEnMin=16 EnMin= -1462.78903183303     IErMin=17 ErrMin= 1.24D-08
 ErrMax= 1.24D-08  0.00D+00 EMaxC= 1.00D-01 BMatC= 2.17D-13 BMatP= 8.67D-13
 IDIUse=1 WtCom= 1.00D+00 WtEn= 0.00D+00
 Coeff-Com:  0.896D-07-0.214D-06-0.498D-06 0.923D-06 0.173D-04 0.134D-04
 Coeff-Com: -0.274D-04-0.159D-03-0.499D-03 0.962D-03 0.412D-02 0.779D-02
 Coeff-Com: -0.187D-01-0.762D-01-0.926D-01 0.331D+00 0.844D+00
 Coeff:      0.896D-07-0.214D-06-0.498D-06 0.923D-06 0.173D-04 0.134D-04
 Coeff:     -0.274D-04-0.159D-03-0.499D-03 0.962D-03 0.412D-02 0.779D-02
 Coeff:     -0.187D-01-0.762D-01-0.926D-01 0.331D+00 0.844D+00
 Gap=     0.259 Goal=   None    Shift=    0.000
 RMSDP=8.10D-09 MaxDP=1.56D-06 DE= 1.84D-10 OVMax= 3.41D-07

 Cycle  18  Pass 1  IDiag  1:
 RMSU=  2.32D-09    CP:  6.35D-01  1.35D+00  7.47D-01  8.51D-01  1.27D+00
                    CP:  1.08D+00  1.11D+00  1.38D+00  1.54D+00  1.33D+00
                    CP:  1.27D+00  1.49D+00  1.53D+00  1.45D+00  1.25D+00
                    CP:  1.48D+00  1.10D+00
 E= -1462.78903183279     Delta-E=        0.000000000051 Rises=F Damp=F
 DIIS: error= 4.85D-09 at cycle  18 NSaved=  18.
 NSaved=18 IEnMin=16 EnMin= -1462.78903183303     IErMin=18 ErrMin= 4.85D-09
 ErrMax= 4.85D-09  0.00D+00 EMaxC= 1.00D-01 BMatC= 2.09D-14 BMatP= 2.17D-13
 IDIUse=1 WtCom= 1.00D+00 WtEn= 0.00D+00
 Coeff-Com:  0.380D-07-0.832D-07-0.523D-06-0.284D-06 0.697D-05 0.842D-05
 Coeff-Com:  0.273D-04-0.407D-04-0.353D-03-0.132D-03 0.108D-02 0.585D-02
 Coeff-Com:  0.101D-02-0.279D-01-0.726D-01 0.502D-01 0.332D+00 0.711D+00
 Coeff:      0.380D-07-0.832D-07-0.523D-06-0.284D-06 0.697D-05 0.842D-05
 Coeff:      0.273D-04-0.407D-04-0.353D-03-0.132D-03 0.108D-02 0.585D-02
 Coeff:      0.101D-02-0.279D-01-0.726D-01 0.502D-01 0.332D+00 0.711D+00
 Gap=     0.259 Goal=   None    Shift=    0.000
 RMSDP=2.01D-09 MaxDP=3.56D-07 DE= 5.09D-11 OVMax= 8.03D-08

 SCF Done:  E(RwB97XD) =  -1462.78903183     A.U. after   18 cycles
            NFock= 18  Conv=0.20D-08     -V/T= 2.0044
 KE= 1.456343238266D+03 PE=-9.005841267826D+03 EE= 3.294345364556D+03
 Leave Link  502 at Thu Nov  2 22:29:54 2017, MaxMem=  3758096384 cpu:      8500.1
 (Enter /share/apps/gaussian/g09_D01/g09/l801.exe)
 DoSCS=F DFT=T ScalE2(SS,OS)=  1.000000  1.000000
 ExpMin= 3.60D-02 ExpMax= 1.14D+04 ExpMxC= 1.72D+03 IAcc=3 IRadAn=         5 AccDes= 0.00D+00
 HarFok:  IExCor=  205 AccDes= 0.00D+00 IRadAn=         5 IDoV=-2 UseB2=F ITyADJ=14
 ICtDFT= 12500011 ScaDFX=  1.000000  1.000000  1.000000  1.000000
 Largest valence mixing into a core orbital is  5.75D-05
 Largest core mixing into a valence orbital is  1.58D-05
 Range of M.O.s used for correlation:    31   820
 NBasis=   828 NAE=   110 NBE=   110 NFC=    30 NFV=     0
 NROrb=    790 NOA=    80 NOB=    80 NVA=   710 NVB=   710

 **** Warning!!: The largest alpha MO coefficient is  0.15671693D+03

 Leave Link  801 at Thu Nov  2 22:29:56 2017, MaxMem=  3758096384 cpu:         6.3
 (Enter /share/apps/gaussian/g09_D01/g09/l914.exe)
 RHF ground state
 MDV=  3758096384 DFT=T DoStab=F Mixed=T DoRPA=T DoScal=F NonHer=T
 Would need an additional        349931000000 words for in-memory AO integral storage.
 Making orbital integer symmetry assigments:
    16 initial guesses have been made.
 Convergence on wavefunction:    0.001000000000000
 Davidson Disk Diagonalization:  ConvIn= 1.00D-03 SkipCon=T Conv= 1.00D-03.
 Max sub-space:   200 roots to seek:    16 dimension of matrix:       113600
 Iteration     1 Dimension    16 NMult     0 NNew     16
 CISAX will form    16 AO SS matrices at one time.
 NMat=    16 NSing=    16 JSym2X= 0.
 FoFJK:  IHMeth= 1 ICntrl=       0 DoSepK=T KAlg= 0 I1Cent=   0 FoldK=F
 IRaf=         1 NMat=  32 IRICut=       1 DoRegI=T DoRafI=F ISym2E= 0.
 FoFCou: FMM=F IPFlag=           0 FMFlag=      100000 FMFlg1=           0
         NFxFlg=           0 DoJE=F BraDBF=F KetDBF=F FulRan=T
         wScrn=  0.000000 ICntrl=     500 IOpCl=  0 I1Cent=           0 NGrid=           0
         NMat0=   16 NMatS0=     16 NMatT0=    0 NMatD0=   16 NMtDS0=    0 NMtDT0=    0
 Symmetry not used in FoFCou.
 New state      1 was old state      3
 New state      2 was old state      4
 New state      3 was old state      1
 New state      4 was old state      2
 Excitation Energies [eV] at current iteration:
 Root      1 :     4.519691883755617
 Root      2 :     4.679312306693952
 Root      3 :     4.830320980525149
 Root      4 :     5.345361385221886
 Root      5 :     5.372100358615630
 Root      6 :     5.437414558097474
 Root      7 :     6.096718825063091
 Root      8 :     6.297374087677953
 Root      9 :     6.303549838148283
 Root     10 :     6.339122110850673
 Root     11 :     6.600675816797590
 Root     12 :     6.612920993567019
 Root     13 :     6.676388982063857
 Root     14 :     7.073379565586072
 Root     15 :     7.276216165198798
 Root     16 :     7.354623366333057
 Iteration     2 Dimension    24 NMult    16 NNew      8
 CISAX will form     8 AO SS matrices at one time.
 NMat=     8 NSing=     8 JSym2X= 0.
 Root      1 not converged, maximum delta is    0.043635720836953
 Root      2 not converged, maximum delta is    0.073462287607580
 New state      3 was old state      4
 Root      3 not converged, maximum delta is    0.380133203537750
 New state      4 was old state      3
 Root      4 not converged, maximum delta is    0.102834293196567
 Excitation Energies [eV] at current iteration:
 Root      1 :     3.964123095134852   Change is   -0.555568788620765
 Root      2 :     4.106596243030866   Change is   -0.572716063663086
 Root      3 :     4.616513259042116   Change is   -0.728848126179770
 Root      4 :     4.782123747160278   Change is   -0.048197233364872
 Iteration     3 Dimension    32 NMult    24 NNew      8
 CISAX will form     8 AO SS matrices at one time.
 NMat=     8 NSing=     8 JSym2X= 0.
 Root      1 not converged, maximum delta is    0.014904154050844
 Root      2 not converged, maximum delta is    0.017855830177240
 Root      3 not converged, maximum delta is    0.037398957294815
 Root      4 not converged, maximum delta is    0.213085971585466
 Excitation Energies [eV] at current iteration:
 Root      1 :     3.918424510539684   Change is   -0.045698584595168
 Root      2 :     4.049264768112838   Change is   -0.057331474918029
 Root      3 :     4.534185279043739   Change is   -0.082327979998376
 Root      4 :     4.764477599413835   Change is   -0.017646147746442
 Iteration     4 Dimension    40 NMult    32 NNew      8
 CISAX will form     8 AO SS matrices at one time.
 NMat=     8 NSing=     8 JSym2X= 0.
 Root      1 not converged, maximum delta is    0.011677810518179
 Root      2 not converged, maximum delta is    0.011796600697510
 Root      3 not converged, maximum delta is    0.024286452773124
 Root      4 not converged, maximum delta is    0.538883447173924
 Excitation Energies [eV] at current iteration:
 Root      1 :     3.909232232194843   Change is   -0.009192278344841
 Root      2 :     4.036831847161348   Change is   -0.012432920951490
 Root      3 :     4.512571000984522   Change is   -0.021614278059217
 Root      4 :     4.590632582515942   Change is   -0.173845016897893
 Iteration     5 Dimension    48 NMult    40 NNew      8
 CISAX will form     8 AO SS matrices at one time.
 NMat=     8 NSing=     8 JSym2X= 0.
 Root      1 not converged, maximum delta is    0.002903347193647
 Root      2 not converged, maximum delta is    0.003640954725341
 Root      3 not converged, maximum delta is    0.019339967114001
 Root      4 not converged, maximum delta is    0.024571875850995
 Excitation Energies [eV] at current iteration:
 Root      1 :     3.907918673897208   Change is   -0.001313558297635
 Root      2 :     4.035022280814314   Change is   -0.001809566347034
 Root      3 :     4.507747118268242   Change is   -0.004823882716280
 Root      4 :     4.556757015581810   Change is   -0.033875566934133
 Iteration     6 Dimension    56 NMult    48 NNew      8
 CISAX will form     8 AO SS matrices at one time.
 NMat=     8 NSing=     8 JSym2X= 0.
 Root      1 not converged, maximum delta is    0.002121796676372
 Root      2 not converged, maximum delta is    0.004608354456239
 Root      3 not converged, maximum delta is    0.006660076498231
 Root      4 not converged, maximum delta is    0.014554938098235
 Excitation Energies [eV] at current iteration:
 Root      1 :     3.907722433033264   Change is   -0.000196240863944
 Root      2 :     4.034680651351048   Change is   -0.000341629463265
 Root      3 :     4.506520409801997   Change is   -0.001226708466245
 Root      4 :     4.548438088273370   Change is   -0.008318927308440
 Iteration     7 Dimension    64 NMult    56 NNew      8
 CISAX will form     8 AO SS matrices at one time.
 NMat=     8 NSing=     8 JSym2X= 0.
 Root      1 not converged, maximum delta is    0.004301861072567
 Root      2 not converged, maximum delta is    0.011238532191041
 Root      3 not converged, maximum delta is    0.329552079880252
 No map to state      4
 Excitation Energies [eV] at current iteration:
 Root      1 :     3.907658331481533   Change is   -0.000064101551730
 Root      2 :     4.034451813130822   Change is   -0.000228838220226
 Root      3 :     4.501154033373339   Change is   -0.005366376428657
 Root      4 :     4.517444961536269
 Iteration     8 Dimension    72 NMult    64 NNew      8
 CISAX will form     8 AO SS matrices at one time.
 NMat=     8 NSing=     8 JSym2X= 0.
 Root      1 not converged, maximum delta is    0.002787698798779
 Root      2 not converged, maximum delta is    0.010217675324185
 New state      3 was old state      4
 Root      3 not converged, maximum delta is    0.262477948845625
 New state      4 was old state      3
 Root      4 not converged, maximum delta is    0.355158462618008
 Excitation Energies [eV] at current iteration:
 Root      1 :     3.907633786350709   Change is   -0.000024545130825
 Root      2 :     4.034290893601214   Change is   -0.000160919529609
 Root      3 :     4.307620087761551   Change is   -0.209824873774718
 Root      4 :     4.505941201526961   Change is    0.004787168153622
 Iteration     9 Dimension    80 NMult    72 NNew      8
 CISAX will form     8 AO SS matrices at one time.
 NMat=     8 NSing=     8 JSym2X= 0.
 Root      1 has converged.
 Root      2 not converged, maximum delta is    0.002472526735496
 Root      3 not converged, maximum delta is    0.019604308164612
 Root      4 not converged, maximum delta is    0.497963670490685
 Excitation Energies [eV] at current iteration:
 Root      1 :     3.907629878226577   Change is   -0.000003908124132
 Root      2 :     4.034258587301152   Change is   -0.000032306300062
 Root      3 :     4.286114916540150   Change is   -0.021505171221400
 Root      4 :     4.485645241700838   Change is   -0.020295959826123
 Iteration    10 Dimension    86 NMult    80 NNew      6
 CISAX will form     6 AO SS matrices at one time.
 NMat=     6 NSing=     6 JSym2X= 0.
 Root      1 has converged.
 Root      2 not converged, maximum delta is    0.001235854636278
 Root      3 not converged, maximum delta is    0.069162220133926
 Root      4 not converged, maximum delta is    0.216510862104830
 Excitation Energies [eV] at current iteration:
 Root      1 :     3.907629368898119   Change is   -0.000000509328458
 Root      2 :     4.034253483800621   Change is   -0.000005103500532
 Root      3 :     4.283937726544663   Change is   -0.002177189995488
 Root      4 :     4.321685120210341   Change is   -0.163960121490498
 Iteration    11 Dimension    92 NMult    86 NNew      6
 CISAX will form     6 AO SS matrices at one time.
 NMat=     6 NSing=     6 JSym2X= 0.
 Root      1 has converged.
 Root      2 has converged.
 Root      3 not converged, maximum delta is    0.102632008091939
 Root      4 not converged, maximum delta is    0.092697164990287
 Excitation Energies [eV] at current iteration:
 Root      1 :     3.907629307862384   Change is   -0.000000061035735
 Root      2 :     4.034252707332636   Change is   -0.000000776467985
 Root      3 :     4.283018105692297   Change is   -0.000919620852365
 Root      4 :     4.301307143913858   Change is   -0.020377976296482
 Iteration    12 Dimension    96 NMult    92 NNew      4
 CISAX will form     4 AO SS matrices at one time.
 NMat=     4 NSing=     4 JSym2X= 0.
 Root      1 has converged.
 Root      2 has converged.
 Root      3 not converged, maximum delta is    0.017140153167194
 Root      4 not converged, maximum delta is    0.015644231323180
 Excitation Energies [eV] at current iteration:
 Root      1 :     3.907629295819020   Change is   -0.000000012043365
 Root      2 :     4.034252665234614   Change is   -0.000000042098021
 Root      3 :     4.282874916324498   Change is   -0.000143189367799
 Root      4 :     4.299752746017733   Change is   -0.001554397896126
 Iteration    13 Dimension   100 NMult    96 NNew      4
 CISAX will form     4 AO SS matrices at one time.
 NMat=     4 NSing=     4 JSym2X= 0.
 Root      1 has converged.
 Root      2 has converged.
 Root      3 not converged, maximum delta is    0.001365348440501
 Root      4 not converged, maximum delta is    0.001249581408033
 Excitation Energies [eV] at current iteration:
 Root      1 :     3.907629282988025   Change is   -0.000000012830995
 Root      2 :     4.034252661926856   Change is   -0.000000003307759
 Root      3 :     4.282863266295366   Change is   -0.000011650029132
 Root      4 :     4.299631960620884   Change is   -0.000120785396848
 Iteration    14 Dimension   104 NMult   100 NNew      4
 CISAX will form     4 AO SS matrices at one time.
 NMat=     4 NSing=     4 JSym2X= 0.
 Root      1 has converged.
 Root      2 has converged.
 Root      3 has converged.
 Root      4 has converged.
 Excitation Energies [eV] at current iteration:
 Root      1 :     3.907629262695318   Change is   -0.000000020292707
 Root      2 :     4.034252660131099   Change is   -0.000000001795757
 Root      3 :     4.282862238676696   Change is   -0.000001027618670
 Root      4 :     4.299620000244754   Change is   -0.000011960376130
 Convergence achieved on expansion vectors.
 ***********************************************************************
 Excited states from <AA,BB:AA,BB> singles matrix:
 ***********************************************************************
 
 1PDM for each excited state written to RWF  633
 Ground to excited state transition densities written to RWF  633
 Ground to excited state transition electric dipole moments (Au):
       state          X           Y           Z        Dip. S.      Osc.
         1        -0.0196      0.5604      0.2573      0.3807      0.0364
         2        -1.1365     -0.0416     -3.1043     10.9299      1.0803
         3         0.0734      0.0097      0.2759      0.0816      0.0086
         4         0.0325     -0.0306     -0.0056      0.0020      0.0002
 Ground to excited state transition velocity dipole moments (Au):
       state          X           Y           Z        Dip. S.      Osc.
         1         0.0028     -0.0818     -0.0361      0.0080      0.0371
         2         0.1678      0.0056      0.4565      0.2366      1.0639
         3        -0.0105     -0.0013     -0.0427      0.0019      0.0082
         4        -0.0059      0.0053      0.0012      0.0001      0.0003
 Ground to excited state transition magnetic dipole moments (Au):
       state          X           Y           Z
         1        -2.2647     -0.7320      0.8288
         2       -11.9424     -2.4824      4.3228
         3         1.4371     -0.1557     -0.3872
         4        -0.1172     -0.4231     -0.0454
 Ground to excited state transition velocity quadrupole moments (Au):
       state          XX          YY          ZZ          XY          XZ          YZ
         1         0.4462      4.3735     -1.2528     -1.4247      0.2058     -1.5343
         2         1.6467      0.5588     -2.2660     -4.6932      1.7759    -11.9998
         3        -0.1210      0.0398      0.2290      0.2900     -0.2418      1.3031
         4        -0.0352     -0.2987     -0.0085      0.1916     -0.0062     -0.0297
 <0|del|b> * <b|rxdel|0> + <0|del|b> * <b|delr+rdel|0>
 Rotatory Strengths (R) in cgs (10**-40 erg-esu-cm/Gauss)
       state          XX          YY          ZZ    R(velocity)    E-M Angle
         1       241.7055   -225.9267    100.9496     38.9095       83.96
         2      -460.0043    237.4082     13.5633    -69.6776       90.40
         3         9.0678      0.0723     -1.9842      2.3853       88.61
         4        -4.5796      1.3253     -3.9495     -2.4012      117.02
 1/2[<0|r|b>*<b|rxdel|0> + (<0|rxdel|b>*<b|r|0>)*]
 Rotatory Strengths (R) in cgs (10**-40 erg-esu-cm/Gauss)
       state          XX          YY          ZZ     R(length)
         1       -31.3534    290.0823   -150.8361     35.9643
         2     -9598.4221    -73.1132   9489.5955    -60.6466
         3       -74.6334      1.0626     75.5485      0.6592
         4         2.6971     -9.1413     -0.1810     -2.2084
  1/2[<0|del|b>*<b|r|0> + (<0|r|b>*<b|del|0>)*] (Au)
       state          X           Y           Z        Dip. S.   Osc.(frdel)
         1        -0.0001     -0.0458     -0.0093      0.0552      0.0368
         2        -0.1907     -0.0002     -1.4172      1.6081      1.0721
         3        -0.0008      0.0000     -0.0118      0.0126      0.0084
         4        -0.0002     -0.0002      0.0000      0.0004      0.0002

 Excitation energies and oscillator strengths:
 
 Excited state symmetry could not be determined.
 Excited State   1:      Singlet-?Sym    3.9076 eV  317.29 nm  f=0.0364  <S**2>=0.000
     108 ->111         0.50849
     109 ->111         0.10456
     110 ->112         0.44428
 This state for optimization and/or second-order correction.
 Total Energy, E(TD-HF/TD-KS) =  -1462.64542909    
 Copying the excited state density for this state as the 1-particle RhoCI density.
 
 Excited state symmetry could not be determined.
 Excited State   2:      Singlet-?Sym    4.0343 eV  307.33 nm  f=1.0803  <S**2>=0.000
     108 ->111        -0.43202
     110 ->112         0.51353
 
 Excited state symmetry could not be determined.
 Excited State   3:      Singlet-?Sym    4.2829 eV  289.49 nm  f=0.0086  <S**2>=0.000
     105 ->112         0.66754
     106 ->112         0.14185
 
 Excited state symmetry could not be determined.
 Excited State   4:      Singlet-?Sym    4.2996 eV  288.36 nm  f=0.0002  <S**2>=0.000
     103 ->111        -0.68475
 SavETr:  write IOETrn=   770 NScale= 10 NData=  16 NLR=1 NState=    4 LETran=      82.
 Leave Link  914 at Fri Nov  3 01:02:47 2017, MaxMem=  3758096384 cpu:     36668.0
 (Enter /share/apps/gaussian/g09_D01/g09/l601.exe)
 Copying SCF densities to generalized density rwf, IOpCl= 0 IROHF=0.

 **********************************************************************

            Population analysis using the SCF density.

 **********************************************************************

 Alpha  occ. eigenvalues --  -24.82513 -24.80877 -19.25817 -19.24352 -19.23329
 Alpha  occ. eigenvalues --  -19.21856 -14.51315 -14.49186 -10.39664 -10.39570
 Alpha  occ. eigenvalues --  -10.37665 -10.37389 -10.37188 -10.37049 -10.35477
 Alpha  occ. eigenvalues --  -10.35360 -10.35223 -10.35010 -10.33934 -10.32912
 Alpha  occ. eigenvalues --  -10.32403 -10.31340 -10.30599 -10.30348 -10.29804
 Alpha  occ. eigenvalues --  -10.29544 -10.28847 -10.28296 -10.27922 -10.27053
 Alpha  occ. eigenvalues --   -1.33056  -1.31455  -1.16528  -1.14120  -1.12289
 Alpha  occ. eigenvalues --   -1.10661  -1.09998  -1.08418  -0.97830  -0.95496
 Alpha  occ. eigenvalues --   -0.91239  -0.88914  -0.88172  -0.86520  -0.86129
 Alpha  occ. eigenvalues --   -0.85845  -0.84236  -0.83796  -0.82042  -0.79923
 Alpha  occ. eigenvalues --   -0.75349  -0.73086  -0.72716  -0.70880  -0.70376
 Alpha  occ. eigenvalues --   -0.68630  -0.66987  -0.64635  -0.64553  -0.64287
 Alpha  occ. eigenvalues --   -0.62509  -0.62153  -0.61838  -0.60250  -0.59893
 Alpha  occ. eigenvalues --   -0.59506  -0.58985  -0.57983  -0.57797  -0.56752
 Alpha  occ. eigenvalues --   -0.56529  -0.55857  -0.54862  -0.54436  -0.53688
 Alpha  occ. eigenvalues --   -0.53546  -0.52898  -0.52832  -0.52546  -0.51942
 Alpha  occ. eigenvalues --   -0.51661  -0.51327  -0.50962  -0.50815  -0.50710
 Alpha  occ. eigenvalues --   -0.50483  -0.50044  -0.49394  -0.48822  -0.48408
 Alpha  occ. eigenvalues --   -0.48222  -0.47631  -0.47060  -0.45897  -0.45565
 Alpha  occ. eigenvalues --   -0.44862  -0.44420  -0.43322  -0.43180  -0.41965
 Alpha  occ. eigenvalues --   -0.41224  -0.40833  -0.35726  -0.34949  -0.33257
 Alpha  occ. eigenvalues --   -0.32606  -0.32312  -0.30301  -0.29818  -0.27879
 Alpha virt. eigenvalues --   -0.02020   0.00450   0.02106   0.03430   0.03656
 Alpha virt. eigenvalues --    0.03856   0.04880   0.05131   0.05686   0.05903
 Alpha virt. eigenvalues --    0.05943   0.06290   0.06394   0.06771   0.06896
 Alpha virt. eigenvalues --    0.07412   0.07602   0.07820   0.08200   0.08580
 Alpha virt. eigenvalues --    0.08699   0.09002   0.09309   0.09610   0.10135
 Alpha virt. eigenvalues --    0.10421   0.11222   0.11338   0.11594   0.11933
 Alpha virt. eigenvalues --    0.12329   0.12406   0.12690   0.12934   0.13240
 Alpha virt. eigenvalues --    0.13635   0.13694   0.14024   0.14209   0.14473
 Alpha virt. eigenvalues --    0.14888   0.14938   0.15321   0.15516   0.15780
 Alpha virt. eigenvalues --    0.16182   0.16310   0.16456   0.16577   0.16766
 Alpha virt. eigenvalues --    0.16994   0.17241   0.17623   0.17680   0.17943
 Alpha virt. eigenvalues --    0.17968   0.18131   0.18437   0.18558   0.18712
 Alpha virt. eigenvalues --    0.19004   0.19132   0.19340   0.19800   0.19957
 Alpha virt. eigenvalues --    0.20186   0.20326   0.20433   0.20540   0.20811
 Alpha virt. eigenvalues --    0.21071   0.21260   0.21429   0.21639   0.21856
 Alpha virt. eigenvalues --    0.21890   0.22185   0.22570   0.22598   0.22711
 Alpha virt. eigenvalues --    0.23268   0.23523   0.23793   0.23975   0.24259
 Alpha virt. eigenvalues --    0.24485   0.24651   0.24917   0.25223   0.25380
 Alpha virt. eigenvalues --    0.25601   0.25936   0.26104   0.26328   0.26595
 Alpha virt. eigenvalues --    0.26753   0.27069   0.27200   0.27368   0.27730
 Alpha virt. eigenvalues --    0.27841   0.28039   0.28153   0.28530   0.28684
 Alpha virt. eigenvalues --    0.28909   0.29015   0.29506   0.29605   0.29862
 Alpha virt. eigenvalues --    0.30278   0.30600   0.30884   0.30983   0.31192
 Alpha virt. eigenvalues --    0.31312   0.31796   0.32022   0.32376   0.32432
 Alpha virt. eigenvalues --    0.32571   0.32978   0.33055   0.33564   0.33768
 Alpha virt. eigenvalues --    0.33867   0.34381   0.34516   0.34616   0.35108
 Alpha virt. eigenvalues --    0.35396   0.35643   0.35891   0.36290   0.36446
 Alpha virt. eigenvalues --    0.36783   0.36954   0.37020   0.37197   0.37556
 Alpha virt. eigenvalues --    0.37957   0.38056   0.38235   0.38719   0.39049
 Alpha virt. eigenvalues --    0.39199   0.39547   0.39864   0.40370   0.40476
 Alpha virt. eigenvalues --    0.40723   0.41224   0.41484   0.41661   0.42047
 Alpha virt. eigenvalues --    0.42226   0.42595   0.42888   0.42928   0.43507
 Alpha virt. eigenvalues --    0.43966   0.44156   0.44621   0.44700   0.44838
 Alpha virt. eigenvalues --    0.45268   0.45404   0.45528   0.45880   0.46142
 Alpha virt. eigenvalues --    0.46658   0.46961   0.47154   0.47450   0.48018
 Alpha virt. eigenvalues --    0.48471   0.48663   0.49273   0.49762   0.49831
 Alpha virt. eigenvalues --    0.50454   0.51153   0.51362   0.52042   0.52794
 Alpha virt. eigenvalues --    0.53241   0.53386   0.53484   0.53861   0.54063
 Alpha virt. eigenvalues --    0.54223   0.54913   0.55374   0.56112   0.56748
 Alpha virt. eigenvalues --    0.57104   0.57935   0.58442   0.58695   0.59176
 Alpha virt. eigenvalues --    0.59934   0.60175   0.60935   0.61481   0.61990
 Alpha virt. eigenvalues --    0.62711   0.63994   0.64306   0.64580   0.65233
 Alpha virt. eigenvalues --    0.65399   0.65456   0.66330   0.66612   0.66904
 Alpha virt. eigenvalues --    0.67311   0.67712   0.68458   0.68964   0.69058
 Alpha virt. eigenvalues --    0.69445   0.70003   0.70108   0.70344   0.70454
 Alpha virt. eigenvalues --    0.70873   0.71178   0.71409   0.71607   0.71815
 Alpha virt. eigenvalues --    0.72472   0.72894   0.73238   0.73344   0.73762
 Alpha virt. eigenvalues --    0.74249   0.74461   0.75362   0.75658   0.75776
 Alpha virt. eigenvalues --    0.75847   0.76669   0.76884   0.77122   0.77680
 Alpha virt. eigenvalues --    0.77996   0.78763   0.79219   0.79356   0.79900
 Alpha virt. eigenvalues --    0.80135   0.80497   0.80722   0.81085   0.81634
 Alpha virt. eigenvalues --    0.81869   0.82001   0.82467   0.82807   0.83859
 Alpha virt. eigenvalues --    0.84277   0.84751   0.85882   0.86639   0.87260
 Alpha virt. eigenvalues --    0.87623   0.88426   0.88802   0.88942   0.89703
 Alpha virt. eigenvalues --    0.90426   0.92687   0.92981   0.93150   0.94868
 Alpha virt. eigenvalues --    0.95225   0.95547   0.96224   0.96407   0.96632
 Alpha virt. eigenvalues --    0.97240   0.97750   0.98446   0.99100   0.99506
 Alpha virt. eigenvalues --    0.99726   1.00203   1.00377   1.01450   1.01862
 Alpha virt. eigenvalues --    1.02820   1.03453   1.03793   1.04099   1.04392
 Alpha virt. eigenvalues --    1.05290   1.05939   1.06057   1.06385   1.07467
 Alpha virt. eigenvalues --    1.07639   1.08112   1.08588   1.09747   1.10053
 Alpha virt. eigenvalues --    1.10364   1.10651   1.11450   1.12478   1.12797
 Alpha virt. eigenvalues --    1.13095   1.14019   1.14360   1.14397   1.15850
 Alpha virt. eigenvalues --    1.16510   1.16837   1.17076   1.17693   1.17965
 Alpha virt. eigenvalues --    1.18364   1.18977   1.19373   1.19928   1.20626
 Alpha virt. eigenvalues --    1.22041   1.22452   1.23096   1.23626   1.24735
 Alpha virt. eigenvalues --    1.26245   1.26547   1.27338   1.27973   1.29845
 Alpha virt. eigenvalues --    1.30970   1.32133   1.32933   1.33724   1.34883
 Alpha virt. eigenvalues --    1.35277   1.35558   1.35784   1.37415   1.37944
 Alpha virt. eigenvalues --    1.39488   1.40392   1.40573   1.41498   1.42580
 Alpha virt. eigenvalues --    1.42837   1.43814   1.45205   1.46613   1.48304
 Alpha virt. eigenvalues --    1.48708   1.49321   1.50490   1.51316   1.52009
 Alpha virt. eigenvalues --    1.52561   1.53514   1.53705   1.53931   1.54259
 Alpha virt. eigenvalues --    1.55408   1.55711   1.55914   1.57004   1.57508
 Alpha virt. eigenvalues --    1.58865   1.59088   1.59279   1.60064   1.60917
 Alpha virt. eigenvalues --    1.61183   1.61732   1.62170   1.62432   1.62804
 Alpha virt. eigenvalues --    1.62869   1.63312   1.63876   1.64190   1.64621
 Alpha virt. eigenvalues --    1.64754   1.65173   1.65344   1.65814   1.66292
 Alpha virt. eigenvalues --    1.66758   1.67029   1.67590   1.68010   1.68445
 Alpha virt. eigenvalues --    1.69407   1.70174   1.70939   1.70965   1.71456
 Alpha virt. eigenvalues --    1.72901   1.73174   1.73556   1.74586   1.75399
 Alpha virt. eigenvalues --    1.75943   1.76359   1.76368   1.77253   1.78384
 Alpha virt. eigenvalues --    1.79460   1.79844   1.80806   1.81653   1.82151
 Alpha virt. eigenvalues --    1.82578   1.83006   1.83959   1.84232   1.84595
 Alpha virt. eigenvalues --    1.85769   1.86120   1.86379   1.87651   1.87987
 Alpha virt. eigenvalues --    1.88586   1.90096   1.90171   1.91863   1.93704
 Alpha virt. eigenvalues --    1.95543   1.96126   1.96779   1.97633   1.97822
 Alpha virt. eigenvalues --    1.98235   1.98883   1.99333   2.00411   2.00718
 Alpha virt. eigenvalues --    2.02063   2.02275   2.02534   2.03338   2.03775
 Alpha virt. eigenvalues --    2.05188   2.05664   2.06061   2.06400   2.06744
 Alpha virt. eigenvalues --    2.07924   2.08066   2.08357   2.08776   2.09280
 Alpha virt. eigenvalues --    2.09846   2.10055   2.10576   2.10961   2.12449
 Alpha virt. eigenvalues --    2.13062   2.15437   2.16532   2.16592   2.17338
 Alpha virt. eigenvalues --    2.17810   2.17991   2.18387   2.19548   2.19675
 Alpha virt. eigenvalues --    2.21394   2.21722   2.22451   2.22903   2.23411
 Alpha virt. eigenvalues --    2.23842   2.25070   2.25376   2.26487   2.27798
 Alpha virt. eigenvalues --    2.28970   2.30490   2.31376   2.31959   2.35788
 Alpha virt. eigenvalues --    2.38017   2.38455   2.39271   2.40253   2.41066
 Alpha virt. eigenvalues --    2.41817   2.43378   2.44975   2.45898   2.47317
 Alpha virt. eigenvalues --    2.48653   2.49215   2.49266   2.51104   2.51640
 Alpha virt. eigenvalues --    2.52537   2.53859   2.54236   2.55152   2.55913
 Alpha virt. eigenvalues --    2.56881   2.58876   2.59712   2.60062   2.60403
 Alpha virt. eigenvalues --    2.60971   2.61728   2.62718   2.63591   2.65094
 Alpha virt. eigenvalues --    2.65810   2.66713   2.68709   2.69404   2.69823
 Alpha virt. eigenvalues --    2.70799   2.72751   2.73460   2.74737   2.75280
 Alpha virt. eigenvalues --    2.75397   2.75953   2.76481   2.76632   2.77639
 Alpha virt. eigenvalues --    2.78742   2.79248   2.81457   2.82026   2.82098
 Alpha virt. eigenvalues --    2.82557   2.84068   2.84454   2.85313   2.85876
 Alpha virt. eigenvalues --    2.85967   2.86983   2.87553   2.88024   2.88208
 Alpha virt. eigenvalues --    2.89771   2.90288   2.90725   2.91614   2.92401
 Alpha virt. eigenvalues --    2.93257   2.93450   2.94683   2.94955   2.96167
 Alpha virt. eigenvalues --    2.96704   2.97867   2.98549   2.99488   2.99670
 Alpha virt. eigenvalues --    3.00052   3.00550   3.01548   3.03148   3.05723
 Alpha virt. eigenvalues --    3.06038   3.08194   3.09280   3.10277   3.10588
 Alpha virt. eigenvalues --    3.12124   3.14305   3.14773   3.15259   3.17968
 Alpha virt. eigenvalues --    3.18980   3.19566   3.20275   3.20904   3.21334
 Alpha virt. eigenvalues --    3.22440   3.23019   3.23800   3.25863   3.27420
 Alpha virt. eigenvalues --    3.29087   3.30240   3.30864   3.32241   3.32431
 Alpha virt. eigenvalues --    3.35236   3.35789   3.37876   3.39146   3.40720
 Alpha virt. eigenvalues --    3.42632   3.46890   3.48905   3.49860   3.52331
 Alpha virt. eigenvalues --    3.53544   3.55025   3.56364   3.58355   3.60725
 Alpha virt. eigenvalues --    3.63572   3.65499   3.66703   3.67631   3.68334
 Alpha virt. eigenvalues --    3.69292   3.71314   3.71612   3.73390   3.76439
 Alpha virt. eigenvalues --    3.78264   3.78456   3.78897   3.79903   3.80408
 Alpha virt. eigenvalues --    3.81381   3.81823   3.82307   3.85325   3.87485
 Alpha virt. eigenvalues --    3.88094   3.88967   3.90145   3.91448   3.92539
 Alpha virt. eigenvalues --    3.92816   3.93584   3.94869   3.96738   4.02510
 Alpha virt. eigenvalues --    4.03304   4.04854   4.06428   4.08761   4.09777
 Alpha virt. eigenvalues --    4.11074   4.13501   4.16355   4.18741   4.18894
 Alpha virt. eigenvalues --    4.20713   4.27291   4.30099   4.32047   4.33228
 Alpha virt. eigenvalues --    4.39804   4.40586   4.63519   4.64844   4.90676
 Alpha virt. eigenvalues --    4.93139   4.94114   4.94474   4.95246   4.95899
 Alpha virt. eigenvalues --    5.15710   5.16347   5.17953   5.19607   5.20615
 Alpha virt. eigenvalues --    5.23587   5.37226   5.37479   5.66714   5.68812
 Alpha virt. eigenvalues --    5.85001   5.85999   5.98808   5.99068   6.44371
 Alpha virt. eigenvalues --    6.45829   6.56806   6.59501   6.83082   6.85710
 Alpha virt. eigenvalues --   23.69307  23.71337  23.90832  23.91896  24.00960
 Alpha virt. eigenvalues --   24.01756  24.02654  24.03122  24.03644  24.04288
 Alpha virt. eigenvalues --   24.05117  24.05636  24.05907  24.06988  24.12086
 Alpha virt. eigenvalues --   24.15302  24.20246  24.22537  24.22952  24.24251
 Alpha virt. eigenvalues --   24.28155  24.31180  35.68475  35.70013  50.13187
 Alpha virt. eigenvalues --   50.14972  50.17158  50.18882  66.94325  66.96392
          Condensed to atoms (all electrons):
 Mulliken charges:
               1
     1  C   -0.643471
     2  C   -0.344226
     3  F   -0.155996
     4  C   -0.171559
     5  H    0.236342
     6  C   -0.284723
     7  C   -0.812548
     8  H    0.253431
     9  O   -0.319329
    10  C    1.396550
    11  H    0.137543
    12  H    0.509028
    13  C   -0.153441
    14  O   -0.318565
    15  C   -0.498012
    16  C    0.396579
    17  H    0.055356
    18  H    0.243384
    19  N    0.189365
    20  C   -0.425895
    21  C   -0.330043
    22  H    0.201077
    23  H    0.208800
    24  H    0.192424
    25  H    0.147316
    26  H    0.180029
    27  H    0.206273
    28  H    0.182226
    29  C   -0.654971
    30  H    0.220974
    31  H    0.236005
    32  N    0.212274
    33  C   -0.314092
    34  C    0.283862
    35  H    0.139325
    36  H    0.179513
    37  H    0.190418
    38  H    0.242859
    39  C   -0.311421
    40  C   -0.431766
    41  H    0.116320
    42  O   -0.386085
    43  C    1.072417
    44  H    0.429675
    45  C   -0.172463
    46  C   -0.277385
    47  O   -0.362085
    48  H   -0.176060
    49  C   -0.052753
    50  C   -0.300144
    51  H    0.189153
    52  C   -0.448288
    53  H    0.263297
    54  F   -0.166495
 Sum of Mulliken charges =   0.00000
 Mulliken charges with hydrogens summed into heavy atoms:
               1
     1  C   -0.643471
     2  C   -0.107884
     3  F   -0.155996
     4  C    0.081872
     6  C   -0.284723
     7  C   -0.675005
     9  O    0.189699
    10  C    1.396550
    13  C   -0.153441
    14  O   -0.318565
    15  C   -0.442656
    16  C    0.639962
    19  N    0.189365
    20  C    0.176405
    21  C    0.203575
    29  C   -0.015766
    32  N    0.212274
    33  C    0.195165
    34  C    0.526720
    39  C   -0.195101
    40  C   -0.431766
    42  O   -0.386085
    43  C    1.072417
    45  C   -0.348523
    46  C   -0.277385
    47  O    0.067590
    49  C    0.136400
    50  C   -0.036846
    52  C   -0.448288
    54  F   -0.166495
 Electronic spatial extent (au):  <R**2>=         175204.2897
 Charge=              0.0000 electrons
 Dipole moment (field-independent basis, Debye):
    X=             -0.7724    Y=              9.1819    Z=              0.2828  Tot=              9.2186
 Quadrupole moment (field-independent basis, Debye-Ang):
   XX=           -193.8410   YY=           -433.1479   ZZ=           -135.9970
   XY=             55.4107   XZ=              3.2704   YZ=             34.2099
 Traceless Quadrupole moment (field-independent basis, Debye-Ang):
   XX=             60.4876   YY=           -178.8192   ZZ=            118.3316
   XY=             55.4107   XZ=              3.2704   YZ=             34.2099
 Octapole moment (field-independent basis, Debye-Ang**2):
  XXX=          -1421.3518  YYY=          13049.7173  ZZZ=            516.7912  XYY=          -1867.8778
  XXY=           2869.6322  XXZ=            233.6605  XZZ=           -351.4875  YZZ=           1795.8904
  YYZ=           -742.7727  XYZ=             17.1465
 Hexadecapole moment (field-independent basis, Debye-Ang**3):
 XXXX=          -9153.6235 YYYY=        -333105.5199 ZZZZ=          -9431.2404 XXXY=          21723.7480
 XXXZ=            255.6351 YYYX=          50338.6477 YYYZ=          10209.7055 ZZZX=              1.8412
 ZZZY=          -6339.1208 XXYY=         -45912.4091 XXZZ=          -3094.7971 YYZZ=         -26872.8089
 XXYZ=          -3279.4191 YYXZ=           -821.6260 ZZXY=           5397.5069
 N-N= 2.792363633172D+03 E-N=-9.005841266930D+03  KE= 1.456343238266D+03
 Leave Link  601 at Fri Nov  3 01:02:48 2017, MaxMem=  3758096384 cpu:         0.7
 (Enter /share/apps/gaussian/g09_D01/g09/l9999.exe)
 1\1\GINC-NXV22\SP\RwB97XD TD-FC\6-311++G(d,p)\C22H24F2N2O4\BTX008\03-N
 ov-2017\0\\#p wb97xd 6-311++G** td=(nstates=4) nosymm\\Title\\0,1\C,0,
 0.711266,-10.352067,-4.455065\C,0,0.524838,-11.682836,-4.135836\F,0,0.
 400627,-9.952529,-5.735743\C,0,1.187527,-9.399635,-3.55425\H,0,0.13003
 7,-12.394456,-4.865141\C,0,0.804151,-12.09543,-2.821006\C,0,1.478955,-
 9.829641,-2.265862\H,0,1.306509,-8.355346,-3.847943\O,0,0.587417,-13.3
 77633,-2.483228\C,0,1.302394,-11.164375,-1.854181\H,0,1.838291,-9.0855
 65,-1.554816\H,0,0.843731,-13.385183,-1.443578\C,0,1.566194,-11.642445
 ,-0.477235\O,0,1.294958,-12.881802,-0.216549\C,0,2.10687,-10.782651,0.
 521136\C,0,2.324617,-11.24733,1.805567\H,0,2.356875,-9.756222,0.265331
 \H,0,2.065237,-12.284592,2.038284\N,0,2.816311,-10.546919,2.828701\C,0
 ,3.173727,-9.143661,2.684511\C,0,3.066717,-11.165084,4.124274\H,0,4.01
 6486,-9.031414,1.982362\H,0,3.462633,-8.746043,3.666542\H,0,2.313741,-
 8.568269,2.305379\H,0,2.73056,-12.206731,4.09445\H,0,2.524709,-10.6169
 78,4.914416\H,0,4.144656,-11.130952,4.359239\H,0,1.241451,-14.781049,-
 6.056648\C,0,1.917182,-15.109626,-5.253396\H,0,2.942488,-14.776579,-5.
 500933\H,0,1.595839,-14.637766,-4.314693\N,0,1.857142,-16.564408,-5.14
 808\C,0,1.413453,-17.269346,-6.343196\C,0,2.272759,-17.224258,-4.06540
 1\H,0,1.403192,-18.349141,-6.154426\H,0,0.402315,-16.928565,-6.622727\
 H,0,2.087858,-17.050686,-7.190404\H,0,2.239104,-18.314801,-4.148492\C,
 0,2.749244,-16.67728,-2.884851\C,0,3.238233,-17.521455,-1.845103\H,0,2
 .786011,-15.597562,-2.759796\O,0,3.33419,-18.798391,-1.99647\C,0,3.669
 842,-16.960867,-0.540828\H,0,3.999924,-19.230762,-0.814521\C,0,3.45463
 8,-15.623796,-0.159088\C,0,4.288887,-17.834998,0.410626\O,0,4.470365,-
 19.133853,0.133937\H,0,2.925038,-14.945568,-0.826469\C,0,3.8455,-15.13
 1172,1.079298\C,0,4.703234,-17.346415,1.661499\H,0,3.624914,-14.108983
 ,1.387398\C,0,4.469404,-16.018499,1.952822\H,0,5.190022,-18.012269,2.3
 76983\F,0,4.855562,-15.551308,3.189121\\Version=ES64L-G09RevD.01\HF=-1
 462.7890318\RMSD=2.011e-09\PG=C01 [X(C22H24F2N2O4)]\\@


 NOTHING PUZZLES ME MORE THAN TIME AND SPACE; AND YET NOTHING TROUBLES ME LESS
                                                          -- CHARLES LAMB (1810)
 Job cpu time:       0 days 12 hours 34 minutes 43.7 seconds.
 File lengths (MBytes):  RWF=   1036 Int=      0 D2E=      0 Chk=    113 Scr=      1
 Normal termination of Gaussian 09 at Fri Nov  3 01:02:48 2017.
