 Entering Gaussian System, Link 0=g09
 Input=2hp_2_k846-mega_dimer_0_mon-1.com
 Output=2hp_2_k846-mega_dimer_0_mon-1.out
 Initial command:
 /share/apps/gaussian/g09_D01/g09/l1.exe "/tmp/160990.1.all.q/Gau-16257.inp" -scrdir="/tmp/160990.1.all.q/"
 Entering Link 1 = /share/apps/gaussian/g09_D01/g09/l1.exe PID=     16258.
  
 Copyright (c) 1988,1990,1992,1993,1995,1998,2003,2009,2013,
            Gaussian, Inc.  All Rights Reserved.
  
 This is part of the Gaussian(R) 09 program.  It is based on
 the Gaussian(R) 03 system (copyright 2003, Gaussian, Inc.),
 the Gaussian(R) 98 system (copyright 1998, Gaussian, Inc.),
 the Gaussian(R) 94 system (copyright 1995, Gaussian, Inc.),
 the Gaussian 92(TM) system (copyright 1992, Gaussian, Inc.),
 the Gaussian 90(TM) system (copyright 1990, Gaussian, Inc.),
 the Gaussian 88(TM) system (copyright 1988, Gaussian, Inc.),
 the Gaussian 86(TM) system (copyright 1986, Carnegie Mellon
 University), and the Gaussian 82(TM) system (copyright 1983,
 Carnegie Mellon University). Gaussian is a federally registered
 trademark of Gaussian, Inc.
  
 This software contains proprietary and confidential information,
 including trade secrets, belonging to Gaussian, Inc.
  
 This software is provided under written license and may be
 used, copied, transmitted, or stored only in accord with that
 written license.
  
 The following legend is applicable only to US Government
 contracts under FAR:
  
                    RESTRICTED RIGHTS LEGEND
  
 Use, reproduction and disclosure by the US Government is
 subject to restrictions as set forth in subparagraphs (a)
 and (c) of the Commercial Computer Software - Restricted
 Rights clause in FAR 52.227-19.
  
 Gaussian, Inc.
 340 Quinnipiac St., Bldg. 40, Wallingford CT 06492
  
  
 ---------------------------------------------------------------
 Warning -- This program may not be used in any manner that
 competes with the business of Gaussian, Inc. or will provide
 assistance to any competitor of Gaussian, Inc.  The licensee
 of this program is prohibited from giving any competitor of
 Gaussian, Inc. access to this program.  By using this program,
 the user acknowledges that Gaussian, Inc. is engaged in the
 business of creating and licensing software in the field of
 computational chemistry and represents and warrants to the
 licensee that it is not a competitor of Gaussian, Inc. and that
 it will not use this program in any manner prohibited above.
 ---------------------------------------------------------------
  

 Cite this work as:
 Gaussian 09, Revision D.01,
 M. J. Frisch, G. W. Trucks, H. B. Schlegel, G. E. Scuseria, 
 M. A. Robb, J. R. Cheeseman, G. Scalmani, V. Barone, B. Mennucci, 
 G. A. Petersson, H. Nakatsuji, M. Caricato, X. Li, H. P. Hratchian, 
 A. F. Izmaylov, J. Bloino, G. Zheng, J. L. Sonnenberg, M. Hada, 
 M. Ehara, K. Toyota, R. Fukuda, J. Hasegawa, M. Ishida, T. Nakajima, 
 Y. Honda, O. Kitao, H. Nakai, T. Vreven, J. A. Montgomery, Jr., 
 J. E. Peralta, F. Ogliaro, M. Bearpark, J. J. Heyd, E. Brothers, 
 K. N. Kudin, V. N. Staroverov, T. Keith, R. Kobayashi, J. Normand, 
 K. Raghavachari, A. Rendell, J. C. Burant, S. S. Iyengar, J. Tomasi, 
 M. Cossi, N. Rega, J. M. Millam, M. Klene, J. E. Knox, J. B. Cross, 
 V. Bakken, C. Adamo, J. Jaramillo, R. Gomperts, R. E. Stratmann, 
 O. Yazyev, A. J. Austin, R. Cammi, C. Pomelli, J. W. Ochterski, 
 R. L. Martin, K. Morokuma, V. G. Zakrzewski, G. A. Voth, 
 P. Salvador, J. J. Dannenberg, S. Dapprich, A. D. Daniels, 
 O. Farkas, J. B. Foresman, J. V. Ortiz, J. Cioslowski, 
 and D. J. Fox, Gaussian, Inc., Wallingford CT, 2013.
 
 ******************************************
 Gaussian 09:  ES64L-G09RevD.01 24-Apr-2013
                 2-Nov-2017 
 ******************************************
 %chk=2hp_2_k846-mega_dimer_0_mon-1.chk
 %nproc=4
 Will use up to    4 processors via shared memory.
 %mem=28GB
 ------------------------------------------
 #p wb97xd 6-311++G** td=(nstates=4) nosymm
 ------------------------------------------
 1/38=1/1;
 2/12=2,15=1,17=6,18=5,40=1/2;
 3/5=4,6=6,7=1111,11=9,16=1,25=1,30=1,74=-58/1,2,8,3;
 4//1;
 5/5=2,38=5/2;
 8/6=1,10=2,108=4/1;
 9/41=4,42=1,70=2/14;
 6/7=2,8=2,9=2,10=2/1;
 99/5=1,9=1/99;
 Leave Link    1 at Thu Nov  2 21:52:56 2017, MaxMem=  3758096384 cpu:         0.1
 (Enter /share/apps/gaussian/g09_D01/g09/l101.exe)
 -----
 Title
 -----
 Symbolic Z-matrix:
 Charge =  0 Multiplicity = 1
 H                     1.24145  -14.78105  -6.05665 
 C                     1.91718  -15.10963  -5.2534 
 H                     2.94249  -14.77658  -5.50093 
 H                     1.59584  -14.63777  -4.31469 
 N                     1.85714  -16.56441  -5.14808 
 C                     1.41345  -17.26935  -6.3432 
 C                     2.27276  -17.22426  -4.0654 
 H                     1.40319  -18.34914  -6.15443 
 H                     0.40232  -16.92856  -6.62273 
 H                     2.08786  -17.05069  -7.1904 
 H                     2.2391   -18.3148  -4.14849 
 C                     2.74924  -16.67728  -2.88485 
 C                     3.23823  -17.52145  -1.8451 
 H                     2.78601  -15.59756  -2.7598 
 O                     3.33419  -18.79839  -1.99647 
 C                     3.66984  -16.96087  -0.54083 
 H                     3.99992  -19.23076  -0.81452 
 C                     3.45464  -15.6238  -0.15909 
 C                     4.28889  -17.835    0.41063 
 O                     4.47037  -19.13385   0.13394 
 H                     2.92504  -14.94557  -0.82647 
 C                     3.8455   -15.13117   1.0793 
 C                     4.70323  -17.34642   1.6615 
 H                     3.62491  -14.10898   1.3874 
 C                     4.4694   -16.0185   1.95282 
 H                     5.19002  -18.01227   2.37698 
 F                     4.85556  -15.55131   3.18912 
 
 NAtoms=     27 NQM=       27 NQMF=       0 NMMI=      0 NMMIF=      0
                NMic=       0 NMicF=      0.
                    Isotopes and Nuclear Properties:
 (Nuclear quadrupole moments (NQMom) in fm**2, nuclear magnetic moments (NMagM)
  in nuclear magnetons)

  Atom         1           2           3           4           5           6           7           8           9          10
 IAtWgt=           1          12           1           1          14          12          12           1           1           1
 AtmWgt=   1.0078250  12.0000000   1.0078250   1.0078250  14.0030740  12.0000000  12.0000000   1.0078250   1.0078250   1.0078250
 NucSpn=           1           0           1           1           2           0           0           1           1           1
 AtZEff=   0.0000000   0.0000000   0.0000000   0.0000000   0.0000000   0.0000000   0.0000000   0.0000000   0.0000000   0.0000000
 NQMom=    0.0000000   0.0000000   0.0000000   0.0000000   2.0440000   0.0000000   0.0000000   0.0000000   0.0000000   0.0000000
 NMagM=    2.7928460   0.0000000   2.7928460   2.7928460   0.4037610   0.0000000   0.0000000   2.7928460   2.7928460   2.7928460
 AtZNuc=   1.0000000   6.0000000   1.0000000   1.0000000   7.0000000   6.0000000   6.0000000   1.0000000   1.0000000   1.0000000

  Atom        11          12          13          14          15          16          17          18          19          20
 IAtWgt=           1          12          12           1          16          12           1          12          12          16
 AtmWgt=   1.0078250  12.0000000  12.0000000   1.0078250  15.9949146  12.0000000   1.0078250  12.0000000  12.0000000  15.9949146
 NucSpn=           1           0           0           1           0           0           1           0           0           0
 AtZEff=   0.0000000   0.0000000   0.0000000   0.0000000   0.0000000   0.0000000   0.0000000   0.0000000   0.0000000   0.0000000
 NQMom=    0.0000000   0.0000000   0.0000000   0.0000000   0.0000000   0.0000000   0.0000000   0.0000000   0.0000000   0.0000000
 NMagM=    2.7928460   0.0000000   0.0000000   2.7928460   0.0000000   0.0000000   2.7928460   0.0000000   0.0000000   0.0000000
 AtZNuc=   1.0000000   6.0000000   6.0000000   1.0000000   8.0000000   6.0000000   1.0000000   6.0000000   6.0000000   8.0000000

  Atom        21          22          23          24          25          26          27
 IAtWgt=           1          12          12           1          12           1          19
 AtmWgt=   1.0078250  12.0000000  12.0000000   1.0078250  12.0000000   1.0078250  18.9984033
 NucSpn=           1           0           0           1           0           1           1
 AtZEff=   0.0000000   0.0000000   0.0000000   0.0000000   0.0000000   0.0000000   0.0000000
 NQMom=    0.0000000   0.0000000   0.0000000   0.0000000   0.0000000   0.0000000   0.0000000
 NMagM=    2.7928460   0.0000000   0.0000000   2.7928460   0.0000000   2.7928460   2.6288670
 AtZNuc=   1.0000000   6.0000000   6.0000000   1.0000000   6.0000000   1.0000000   9.0000000
 Leave Link  101 at Thu Nov  2 21:52:56 2017, MaxMem=  3758096384 cpu:         0.2
 (Enter /share/apps/gaussian/g09_D01/g09/l202.exe)
                          Input orientation:                          
 ---------------------------------------------------------------------
 Center     Atomic      Atomic             Coordinates (Angstroms)
 Number     Number       Type             X           Y           Z
 ---------------------------------------------------------------------
      1          1           0        1.241451  -14.781049   -6.056648
      2          6           0        1.917182  -15.109626   -5.253396
      3          1           0        2.942488  -14.776579   -5.500933
      4          1           0        1.595839  -14.637766   -4.314693
      5          7           0        1.857142  -16.564408   -5.148080
      6          6           0        1.413453  -17.269346   -6.343196
      7          6           0        2.272759  -17.224258   -4.065401
      8          1           0        1.403192  -18.349141   -6.154426
      9          1           0        0.402315  -16.928565   -6.622727
     10          1           0        2.087858  -17.050686   -7.190404
     11          1           0        2.239104  -18.314801   -4.148492
     12          6           0        2.749244  -16.677280   -2.884851
     13          6           0        3.238233  -17.521455   -1.845103
     14          1           0        2.786011  -15.597562   -2.759796
     15          8           0        3.334190  -18.798391   -1.996470
     16          6           0        3.669842  -16.960867   -0.540828
     17          1           0        3.999924  -19.230762   -0.814521
     18          6           0        3.454638  -15.623796   -0.159088
     19          6           0        4.288887  -17.834998    0.410626
     20          8           0        4.470365  -19.133853    0.133937
     21          1           0        2.925038  -14.945568   -0.826469
     22          6           0        3.845500  -15.131172    1.079298
     23          6           0        4.703234  -17.346415    1.661499
     24          1           0        3.624914  -14.108983    1.387398
     25          6           0        4.469404  -16.018499    1.952822
     26          1           0        5.190022  -18.012269    2.376983
     27          9           0        4.855562  -15.551308    3.189121
 ---------------------------------------------------------------------
                    Distance matrix (angstroms):
                    1          2          3          4          5
     1  H    0.000000
     2  C    1.099904   0.000000
     3  H    1.789516   1.106096   0.000000
     4  H    1.783404   1.098670   1.799972   0.000000
     5  N    2.094025   1.459824   2.121041   2.115363   0.000000
     6  C    2.510641   2.470991   3.043229   3.327657   1.456743
     7  C    3.316313   2.451415   2.915548   2.685202   1.334291
     8  H    3.573094   3.401544   3.944577   4.146810   2.098589
     9  H    2.374114   2.734672   3.513110   3.463998   2.103263
    10  H    2.674520   2.747516   2.959099   3.786024   2.112057
    11  H    4.138088   3.405524   3.852643   3.736576   2.051572
    12  C    3.991169   2.959708   3.239428   2.744888   2.435322
    13  C    5.406854   4.379333   4.581146   4.136665   3.705807
    14  H    3.731165   2.685328   2.865716   2.180693   2.738885
    15  O    6.083062   5.120788   5.348800   5.070190   4.135819
    16  C    6.408819   5.357911   5.468345   4.892887   4.966873
    17  H    7.408712   6.405091   6.551364   6.255113   5.520932
    18  C    6.355284   5.346037   5.432806   4.657944   5.322291
    19  C    7.774259   6.718168   6.790674   6.308997   6.198951
    20  O    8.227766   7.192809   7.285054   6.947518   6.428895
    21  H    5.496936   4.543168   4.677550   3.745560   4.736810
    22  C    7.604300   6.619810   6.651361   5.865114   6.692381
    23  C    8.839391   7.783385   7.810552   7.259997   7.421734
    24  H    7.845151   6.929486   6.954171   6.075409   7.201847
    25  C    8.723679   7.698666   7.709235   7.031753   7.585825
    26  H    9.856882   8.795425   8.808102   8.311676   8.356492
    27  F    9.956874   8.950154   8.931802   8.232107   8.917725
                    6          7          8          9         10
     6  C    0.000000
     7  C    2.434911   0.000000
     8  H    1.096219   2.526961   0.000000
     9  H    1.103027   3.182124   1.799749   0.000000
    10  H    1.104715   3.135277   1.796665   1.782758   0.000000
    11  H    2.567372   1.094222   2.173407   3.378947   3.297589
    12  C    3.754335   1.385612   3.911150   4.420739   4.372030
    13  C    4.860681   2.439301   4.756333   5.587454   5.487917
    14  H    4.185634   2.148062   4.583327   4.730308   4.714793
    15  O    4.992117   2.808025   4.606428   5.787434   5.620033
    16  C    6.233292   3.800504   6.211078   6.904149   6.835759
    17  H    6.411180   4.192538   6.002904   7.209588   7.004328
    18  C    6.716953   4.383788   6.897827   7.266204   7.303664
    19  C    7.362214   4.946978   7.189679   8.086725   7.952065
    20  O    7.400969   5.109840   7.040372   8.189312   7.978840
    21  H    6.174068   4.013549   6.502880   6.625180   6.755151
    22  C    8.098152   5.772560   8.285346   8.625969   8.669591
    23  C    8.654695   6.222501   8.543092   9.343495   9.234925
    24  H    8.639476   6.423883   8.932754   9.082802   9.197546
    25  C    8.929018   6.519058   8.975579   9.534646   9.504512
    26  H    9.531838   7.115876   9.340155  10.251406  10.103611
    27  F   10.279340   7.880211  10.346429  10.862808  10.846329
                   11         12         13         14         15
    11  H    0.000000
    12  C    2.130377   0.000000
    13  C    2.633108   1.425769   0.000000
    14  H    3.100157   1.087558   2.177736   0.000000
    15  O    2.462574   2.372866   1.289452   3.335937   0.000000
    16  C    4.110400   2.534239   1.483805   2.750196   2.368132
    17  H    3.880056   3.517206   2.136353   4.296257   1.423780
    18  C    4.963303   3.006192   2.547663   2.685411   3.669950
    19  C    5.021691   3.817195   2.508086   4.161290   2.762912
    20  O    4.897813   4.255595   2.834533   4.869917   2.437635
    21  H    4.781012   2.695676   2.787633   2.045037   4.047290
    22  C    6.328174   4.393940   3.825487   4.009823   4.813552
    23  C    6.384803   4.993507   3.804356   5.126605   4.166924
    24  H    7.089108   5.061132   4.716307   4.485403   5.790132
    25  C    6.890085   5.176488   4.266016   5.021929   4.961191
    26  H    7.168073   5.952016   4.677220   6.164136   4.815516
    27  F    8.265792   6.526678   5.642751   6.298793   6.304639
                   16         17         18         19         20
    16  C    0.000000
    17  H    2.310040   0.000000
    18  C    1.407053   3.706364   0.000000
    19  C    1.432685   1.879532   2.431041   0.000000
    20  O    2.412056   1.063146   3.665797   1.340342   0.000000
    21  H    2.167430   4.417964   1.088975   3.426265   4.566415
    22  C    2.450193   4.518521   1.388903   2.820353   4.160002
    23  C    2.463086   3.189997   2.800169   1.405375   2.362754
    24  H    3.442865   5.587638   2.171468   3.908725   5.247406
    25  C    2.783100   4.265821   2.376069   2.389691   3.607461
    26  H    3.453985   3.617562   3.892045   2.170260   2.609044
    27  F    4.159965   5.504512   3.630199   3.640933   4.724104
                   21         22         23         24         25
    21  H    0.000000
    22  C    2.124535   0.000000
    23  C    3.887934   2.445806   0.000000
    24  H    2.467976   1.090162   3.423284   0.000000
    25  C    3.355698   1.392713   1.379459   2.163127   0.000000
    26  H    4.979650   3.434013   1.091898   4.320241   2.162018
    27  F    4.496533   2.376572   2.362042   2.615531   1.376888
                   26         27
    26  H    0.000000
    27  F    2.612998   0.000000
 Symmetry turned off by external request.
 Stoichiometry    C11H12FNO2
 Framework group  C1[X(C11H12FNO2)]
 Deg. of freedom    75
 Full point group                 C1      NOp   1
 Rotational constants (GHZ):      1.4400600      0.2488682      0.2133865
 Leave Link  202 at Thu Nov  2 21:52:56 2017, MaxMem=  3758096384 cpu:         0.0
 (Enter /share/apps/gaussian/g09_D01/g09/l301.exe)
 Standard basis: 6-311++G(d,p) (5D, 7F)
 Ernie: Thresh=  0.10000D-02 Tol=  0.10000D-05 Strict=F.
   414 basis functions,   648 primitive gaussians,   429 cartesian basis functions
    55 alpha electrons       55 beta electrons
       nuclear repulsion energy       934.7875540566 Hartrees.
 IExCor= 4639 DFT=T Ex+Corr=wB97XD ExCW=0 ScaHFX=  1.000000
 ScaDFX=  1.000000  1.000000  1.000000  1.000000 ScalE2=  1.000000  1.000000
 IRadAn=      0 IRanWt=     -1 IRanGd=            0 ICorTp=0 IEmpDi=121
  HFx wShort=  0.000000 wLong=  0.200000 cFull=  0.222036 cShort=  0.000000 cLong=  0.777964
  DFx wShort=  0.000000 wLong=  0.200000 cFull=  0.000000 cShort=  0.000000 cLong=  1.000000
 NAtoms=   27 NActive=   27 NUniq=   27 SFac= 1.00D+00 NAtFMM=   60 NAOKFM=F Big=F
 Integral buffers will be    131072 words long.
 Raffenetti 1 integral format.
 Two-electron integral symmetry is turned off.
 R6Disp:  Grimme-D2 Dispersion energy=       -0.0150363824 Hartrees.
 Nuclear repulsion after empirical dispersion term =      934.7725176742 Hartrees.
 Leave Link  301 at Thu Nov  2 21:52:56 2017, MaxMem=  3758096384 cpu:         0.1
 (Enter /share/apps/gaussian/g09_D01/g09/l302.exe)
 NPDir=0 NMtPBC=     1 NCelOv=     1 NCel=       1 NClECP=     1 NCelD=      1
         NCelK=      1 NCelE2=     1 NClLst=     1 CellRange=     0.0.
 One-electron integrals computed using PRISM.
 NBasis=   414 RedAO= T EigKep=  1.31D-06  NBF=   414
 NBsUse=   412 1.00D-06 EigRej=  7.56D-07 NBFU=   412
 Precomputing XC quadrature grid using
 IXCGrd= 4 IRadAn=           0 IRanWt=          -1 IRanGd=           0 AccXCQ= 0.00D+00.
 Generated NRdTot=       0 NPtTot=           0 NUsed=           0 NTot=          32
 NSgBfM=   420   420   421   421   421 MxSgAt=    27 MxSgA2=    27.
 Leave Link  302 at Thu Nov  2 21:52:57 2017, MaxMem=  3758096384 cpu:         1.6
 (Enter /share/apps/gaussian/g09_D01/g09/l308.exe)
 Leave Link  308 at Thu Nov  2 21:52:57 2017, MaxMem=  3758096384 cpu:         0.2
 (Enter /share/apps/gaussian/g09_D01/g09/l303.exe)
 DipDrv:  MaxL=1.
 Leave Link  303 at Thu Nov  2 21:52:57 2017, MaxMem=  3758096384 cpu:         0.2
 (Enter /share/apps/gaussian/g09_D01/g09/l401.exe)
 ExpMin= 3.60D-02 ExpMax= 1.14D+04 ExpMxC= 1.72D+03 IAcc=3 IRadAn=         5 AccDes= 0.00D+00
 Harris functional with IExCor= 4639 and IRadAn=       5 diagonalized for initial guess.
 HarFok:  IExCor= 4639 AccDes= 0.00D+00 IRadAn=         5 IDoV= 1 UseB2=F ITyADJ=14
 ICtDFT=  3500011 ScaDFX=  1.000000  1.000000  1.000000  1.000000
 FoFCou: FMM=F IPFlag=           0 FMFlag=      100000 FMFlg1=           0
         NFxFlg=           0 DoJE=T BraDBF=F KetDBF=T FulRan=T
         wScrn=  0.000000 ICntrl=     500 IOpCl=  0 I1Cent=   200000004 NGrid=           0
         NMat0=    1 NMatS0=      1 NMatT0=    0 NMatD0=    1 NMtDS0=    0 NMtDT0=    0
 Symmetry not used in FoFCou.
 Harris En= -701.389987882000    
 JPrj=0 DoOrth=F DoCkMO=F.
 Leave Link  401 at Thu Nov  2 21:53:03 2017, MaxMem=  3758096384 cpu:        24.6
 (Enter /share/apps/gaussian/g09_D01/g09/l502.exe)
 Closed shell SCF:
 Using DIIS extrapolation, IDIIS=  1040.
 Two-electron integral symmetry not used.
 IVT=      575875 IEndB=      575875 NGot=  3758096384 MDV=  3757721620
 LenX=  3757721620 LenY=  3757537138
 Requested convergence on RMS density matrix=1.00D-08 within 128 cycles.
 Requested convergence on MAX density matrix=1.00D-06.
 Requested convergence on             energy=1.00D-06.
 No special actions if energy rises.
 Fock matrices will be formed incrementally for  20 cycles.

 Cycle   1  Pass 1  IDiag  1:
 FoFJK:  IHMeth= 1 ICntrl=       0 DoSepK=T KAlg= 0 I1Cent=   0 FoldK=F
 IRaf=         1 NMat=   1 IRICut=       1 DoRegI=T DoRafI=F ISym2E= 0.
 FoFCou: FMM=F IPFlag=           0 FMFlag=      100000 FMFlg1=           0
         NFxFlg=           0 DoJE=T BraDBF=F KetDBF=F FulRan=T
         wScrn=  0.000000 ICntrl=     500 IOpCl=  0 I1Cent=           0 NGrid=           0
         NMat0=    1 NMatS0=      1 NMatT0=    0 NMatD0=    1 NMtDS0=    0 NMtDT0=    0
 Symmetry not used in FoFCou.
 E= -731.037812868338    
 DIIS: error= 1.16D-01 at cycle   1 NSaved=   1.
 NSaved= 1 IEnMin= 1 EnMin= -731.037812868338     IErMin= 1 ErrMin= 1.16D-01
 ErrMax= 1.16D-01  0.00D+00 EMaxC= 1.00D-01 BMatC= 1.75D+00 BMatP= 1.75D+00
 IDIUse=3 WtCom= 0.00D+00 WtEn= 1.00D+00
 Coeff-Com:  0.100D+01
 Coeff-En:   0.100D+01
 Coeff:      0.100D+01
 Gap=     0.312 Goal=   None    Shift=    0.000
 GapD=    0.312 DampG=1.000 DampE=0.250 DampFc=0.2500 IDamp=-1.
 Damping current iteration by 2.50D-01
 RMSDP=4.96D-02 MaxDP=5.43D+00              OVMax= 1.83D-01

 Cycle   2  Pass 1  IDiag  1:
 RMSU=  3.11D-03    CP:  9.06D-01
 E= -731.156834622268     Delta-E=       -0.119021753931 Rises=F Damp=T
 DIIS: error= 8.35D-02 at cycle   2 NSaved=   2.
 NSaved= 2 IEnMin= 2 EnMin= -731.156834622268     IErMin= 2 ErrMin= 8.35D-02
 ErrMax= 8.35D-02  0.00D+00 EMaxC= 1.00D-01 BMatC= 8.27D-01 BMatP= 1.75D+00
 IDIUse=3 WtCom= 1.65D-01 WtEn= 8.35D-01
 Coeff-Com: -0.172D+01 0.272D+01
 Coeff-En:   0.000D+00 0.100D+01
 Coeff:     -0.284D+00 0.128D+01
 Gap=     0.275 Goal=   None    Shift=    0.000
 RMSDP=3.30D-02 MaxDP=3.62D+00 DE=-1.19D-01 OVMax= 7.15D-02

 Cycle   3  Pass 1  IDiag  1:
 RMSU=  3.79D-03    CP:  6.55D-01  3.00D+00
 E= -731.357017152536     Delta-E=       -0.200182530267 Rises=F Damp=F
 DIIS: error= 1.31D-02 at cycle   3 NSaved=   3.
 NSaved= 3 IEnMin= 3 EnMin= -731.357017152536     IErMin= 3 ErrMin= 1.31D-02
 ErrMax= 1.31D-02  0.00D+00 EMaxC= 1.00D-01 BMatC= 5.07D-02 BMatP= 8.27D-01
 IDIUse=3 WtCom= 8.69D-01 WtEn= 1.31D-01
 Coeff-Com:  0.109D+01-0.141D+01 0.132D+01
 Coeff-En:   0.000D+00 0.000D+00 0.100D+01
 Coeff:      0.947D+00-0.123D+01 0.128D+01
 Gap=     0.285 Goal=   None    Shift=    0.000
 RMSDP=5.72D-03 MaxDP=6.81D-01 DE=-2.00D-01 OVMax= 2.89D-02

 Cycle   4  Pass 1  IDiag  1:
 RMSU=  4.29D-03    CP:  6.28D-01  2.84D+00  1.21D+00
 E= -731.384610088834     Delta-E=       -0.027592936299 Rises=F Damp=F
 DIIS: error= 3.67D-03 at cycle   4 NSaved=   4.
 NSaved= 4 IEnMin= 4 EnMin= -731.384610088834     IErMin= 4 ErrMin= 3.67D-03
 ErrMax= 3.67D-03  0.00D+00 EMaxC= 1.00D-01 BMatC= 4.86D-03 BMatP= 5.07D-02
 IDIUse=3 WtCom= 9.63D-01 WtEn= 3.67D-02
 Coeff-Com:  0.433D+00-0.564D+00 0.603D+00 0.527D+00
 Coeff-En:   0.000D+00 0.000D+00 0.000D+00 0.100D+01
 Coeff:      0.417D+00-0.543D+00 0.581D+00 0.545D+00
 Gap=     0.282 Goal=   None    Shift=    0.000
 RMSDP=1.72D-03 MaxDP=1.75D-01 DE=-2.76D-02 OVMax= 9.91D-03

 Cycle   5  Pass 1  IDiag  1:
 RMSU=  9.46D-04    CP:  6.36D-01  3.00D+00  1.28D+00  8.10D-01
 E= -731.387653854057     Delta-E=       -0.003043765223 Rises=F Damp=F
 DIIS: error= 8.04D-04 at cycle   5 NSaved=   5.
 NSaved= 5 IEnMin= 5 EnMin= -731.387653854057     IErMin= 5 ErrMin= 8.04D-04
 ErrMax= 8.04D-04  0.00D+00 EMaxC= 1.00D-01 BMatC= 2.73D-04 BMatP= 4.86D-03
 IDIUse=3 WtCom= 9.92D-01 WtEn= 8.04D-03
 Coeff-Com:  0.693D-02-0.856D-02 0.413D-01 0.212D+00 0.748D+00
 Coeff-En:   0.000D+00 0.000D+00 0.000D+00 0.000D+00 0.100D+01
 Coeff:      0.688D-02-0.849D-02 0.409D-01 0.210D+00 0.750D+00
 Gap=     0.282 Goal=   None    Shift=    0.000
 RMSDP=1.11D-03 MaxDP=1.34D-01 DE=-3.04D-03 OVMax= 4.24D-03

 Cycle   6  Pass 1  IDiag  1:
 RMSU=  3.71D-04    CP:  6.28D-01  3.00D+00  1.26D+00  8.91D-01  1.04D+00
 E= -731.387874850100     Delta-E=       -0.000220996043 Rises=F Damp=F
 DIIS: error= 3.36D-04 at cycle   6 NSaved=   6.
 NSaved= 6 IEnMin= 6 EnMin= -731.387874850100     IErMin= 6 ErrMin= 3.36D-04
 ErrMax= 3.36D-04  0.00D+00 EMaxC= 1.00D-01 BMatC= 2.67D-05 BMatP= 2.73D-04
 IDIUse=3 WtCom= 9.97D-01 WtEn= 3.36D-03
 Coeff-Com: -0.300D-01 0.394D-01-0.302D-01 0.457D-01 0.322D+00 0.654D+00
 Coeff-En:   0.000D+00 0.000D+00 0.000D+00 0.000D+00 0.000D+00 0.100D+01
 Coeff:     -0.299D-01 0.393D-01-0.301D-01 0.455D-01 0.321D+00 0.655D+00
 Gap=     0.283 Goal=   None    Shift=    0.000
 RMSDP=2.34D-04 MaxDP=2.43D-02 DE=-2.21D-04 OVMax= 2.76D-03

 Cycle   7  Pass 1  IDiag  1:
 RMSU=  9.18D-05    CP:  6.27D-01  3.00D+00  1.27D+00  9.08D-01  1.13D+00
                    CP:  1.20D+00
 E= -731.387904418722     Delta-E=       -0.000029568622 Rises=F Damp=F
 DIIS: error= 9.99D-05 at cycle   7 NSaved=   7.
 NSaved= 7 IEnMin= 7 EnMin= -731.387904418722     IErMin= 7 ErrMin= 9.99D-05
 ErrMax= 9.99D-05  0.00D+00 EMaxC= 1.00D-01 BMatC= 4.30D-06 BMatP= 2.67D-05
 IDIUse=1 WtCom= 1.00D+00 WtEn= 0.00D+00
 Coeff-Com: -0.109D-01 0.141D-01-0.199D-01-0.205D-01 0.209D-02 0.255D+00
 Coeff-Com:  0.780D+00
 Coeff:     -0.109D-01 0.141D-01-0.199D-01-0.205D-01 0.209D-02 0.255D+00
 Coeff:      0.780D+00
 Gap=     0.283 Goal=   None    Shift=    0.000
 RMSDP=1.32D-04 MaxDP=1.36D-02 DE=-2.96D-05 OVMax= 9.40D-04

 Cycle   8  Pass 1  IDiag  1:
 RMSU=  3.37D-05    CP:  6.26D-01  3.00D+00  1.27D+00  9.24D-01  1.18D+00
                    CP:  1.37D+00  1.18D+00
 E= -731.387910817512     Delta-E=       -0.000006398790 Rises=F Damp=F
 DIIS: error= 6.49D-05 at cycle   8 NSaved=   8.
 NSaved= 8 IEnMin= 8 EnMin= -731.387910817512     IErMin= 8 ErrMin= 6.49D-05
 ErrMax= 6.49D-05  0.00D+00 EMaxC= 1.00D-01 BMatC= 8.49D-07 BMatP= 4.30D-06
 IDIUse=1 WtCom= 1.00D+00 WtEn= 0.00D+00
 Coeff-Com:  0.305D-02-0.422D-02-0.257D-02-0.220D-01-0.727D-01-0.830D-02
 Coeff-Com:  0.365D+00 0.741D+00
 Coeff:      0.305D-02-0.422D-02-0.257D-02-0.220D-01-0.727D-01-0.830D-02
 Coeff:      0.365D+00 0.741D+00
 Gap=     0.283 Goal=   None    Shift=    0.000
 RMSDP=4.07D-05 MaxDP=3.32D-03 DE=-6.40D-06 OVMax= 7.86D-04

 Cycle   9  Pass 1  IDiag  1:
 RMSU=  2.13D-05    CP:  6.26D-01  3.00D+00  1.27D+00  9.27D-01  1.20D+00
                    CP:  1.45D+00  1.17D+00  1.16D+00
 E= -731.387912354348     Delta-E=       -0.000001536837 Rises=F Damp=F
 DIIS: error= 1.37D-05 at cycle   9 NSaved=   9.
 NSaved= 9 IEnMin= 9 EnMin= -731.387912354348     IErMin= 9 ErrMin= 1.37D-05
 ErrMax= 1.37D-05  0.00D+00 EMaxC= 1.00D-01 BMatC= 8.54D-08 BMatP= 8.49D-07
 IDIUse=1 WtCom= 1.00D+00 WtEn= 0.00D+00
 Coeff-Com:  0.234D-02-0.309D-02 0.213D-02-0.291D-02-0.179D-01-0.342D-01
 Coeff-Com: -0.433D-01 0.214D+00 0.883D+00
 Coeff:      0.234D-02-0.309D-02 0.213D-02-0.291D-02-0.179D-01-0.342D-01
 Coeff:     -0.433D-01 0.214D+00 0.883D+00
 Gap=     0.283 Goal=   None    Shift=    0.000
 RMSDP=1.72D-05 MaxDP=1.66D-03 DE=-1.54D-06 OVMax= 2.59D-04

 Cycle  10  Pass 1  IDiag  1:
 RMSU=  4.53D-06    CP:  6.27D-01  3.00D+00  1.27D+00  9.27D-01  1.20D+00
                    CP:  1.46D+00  1.14D+00  1.33D+00  1.31D+00
 E= -731.387912527214     Delta-E=       -0.000000172865 Rises=F Damp=F
 DIIS: error= 7.58D-06 at cycle  10 NSaved=  10.
 NSaved=10 IEnMin=10 EnMin= -731.387912527214     IErMin=10 ErrMin= 7.58D-06
 ErrMax= 7.58D-06  0.00D+00 EMaxC= 1.00D-01 BMatC= 1.21D-08 BMatP= 8.54D-08
 IDIUse=1 WtCom= 1.00D+00 WtEn= 0.00D+00
 Coeff-Com:  0.269D-03-0.314D-03 0.128D-02 0.300D-02 0.731D-02-0.753D-02
 Coeff-Com: -0.841D-01-0.308D-01 0.309D+00 0.802D+00
 Coeff:      0.269D-03-0.314D-03 0.128D-02 0.300D-02 0.731D-02-0.753D-02
 Coeff:     -0.841D-01-0.308D-01 0.309D+00 0.802D+00
 Gap=     0.283 Goal=   None    Shift=    0.000
 RMSDP=1.01D-05 MaxDP=1.05D-03 DE=-1.73D-07 OVMax= 8.76D-05

 Cycle  11  Pass 1  IDiag  1:
 RMSU=  2.38D-06    CP:  6.27D-01  3.00D+00  1.27D+00  9.26D-01  1.20D+00
                    CP:  1.46D+00  1.13D+00  1.40D+00  1.38D+00  1.35D+00
 E= -731.387912550433     Delta-E=       -0.000000023219 Rises=F Damp=F
 DIIS: error= 2.01D-06 at cycle  11 NSaved=  11.
 NSaved=11 IEnMin=11 EnMin= -731.387912550433     IErMin=11 ErrMin= 2.01D-06
 ErrMax= 2.01D-06  0.00D+00 EMaxC= 1.00D-01 BMatC= 8.83D-10 BMatP= 1.21D-08
 IDIUse=1 WtCom= 1.00D+00 WtEn= 0.00D+00
 Coeff-Com: -0.884D-04 0.129D-03 0.185D-03 0.937D-03 0.300D-02 0.159D-02
 Coeff-Com: -0.179D-01-0.221D-01-0.756D-02 0.176D+00 0.866D+00
 Coeff:     -0.884D-04 0.129D-03 0.185D-03 0.937D-03 0.300D-02 0.159D-02
 Coeff:     -0.179D-01-0.221D-01-0.756D-02 0.176D+00 0.866D+00
 Gap=     0.283 Goal=   None    Shift=    0.000
 RMSDP=1.78D-06 MaxDP=1.31D-04 DE=-2.32D-08 OVMax= 3.39D-05

 Cycle  12  Pass 1  IDiag  1:
 RMSU=  7.89D-07    CP:  6.27D-01  3.00D+00  1.27D+00  9.26D-01  1.20D+00
                    CP:  1.46D+00  1.12D+00  1.41D+00  1.40D+00  1.51D+00
                    CP:  1.24D+00
 E= -731.387912552601     Delta-E=       -0.000000002169 Rises=F Damp=F
 DIIS: error= 1.20D-06 at cycle  12 NSaved=  12.
 NSaved=12 IEnMin=12 EnMin= -731.387912552601     IErMin=12 ErrMin= 1.20D-06
 ErrMax= 1.20D-06  0.00D+00 EMaxC= 1.00D-01 BMatC= 1.66D-10 BMatP= 8.83D-10
 IDIUse=1 WtCom= 1.00D+00 WtEn= 0.00D+00
 Coeff-Com: -0.314D-04 0.391D-04-0.843D-04-0.121D-03-0.173D-03 0.144D-02
 Coeff-Com:  0.524D-02-0.239D-02-0.404D-01-0.664D-01 0.263D+00 0.839D+00
 Coeff:     -0.314D-04 0.391D-04-0.843D-04-0.121D-03-0.173D-03 0.144D-02
 Coeff:      0.524D-02-0.239D-02-0.404D-01-0.664D-01 0.263D+00 0.839D+00
 Gap=     0.283 Goal=   None    Shift=    0.000
 RMSDP=7.02D-07 MaxDP=6.14D-05 DE=-2.17D-09 OVMax= 1.56D-05

 Cycle  13  Pass 1  IDiag  1:
 RMSU=  2.38D-07    CP:  6.27D-01  3.00D+00  1.27D+00  9.26D-01  1.20D+00
                    CP:  1.46D+00  1.12D+00  1.41D+00  1.40D+00  1.58D+00
                    CP:  1.35D+00  1.24D+00
 E= -731.387912553063     Delta-E=       -0.000000000461 Rises=F Damp=F
 DIIS: error= 4.80D-07 at cycle  13 NSaved=  13.
 NSaved=13 IEnMin=13 EnMin= -731.387912553063     IErMin=13 ErrMin= 4.80D-07
 ErrMax= 4.80D-07  0.00D+00 EMaxC= 1.00D-01 BMatC= 3.07D-11 BMatP= 1.66D-10
 IDIUse=1 WtCom= 1.00D+00 WtEn= 0.00D+00
 Coeff-Com: -0.274D-05 0.764D-06-0.654D-04-0.191D-03-0.541D-03 0.350D-03
 Coeff-Com:  0.485D-02 0.194D-02-0.143D-01-0.547D-01-0.249D-01 0.311D+00
 Coeff-Com:  0.777D+00
 Coeff:     -0.274D-05 0.764D-06-0.654D-04-0.191D-03-0.541D-03 0.350D-03
 Coeff:      0.485D-02 0.194D-02-0.143D-01-0.547D-01-0.249D-01 0.311D+00
 Coeff:      0.777D+00
 Gap=     0.283 Goal=   None    Shift=    0.000
 RMSDP=3.73D-07 MaxDP=2.67D-05 DE=-4.61D-10 OVMax= 6.81D-06

 Cycle  14  Pass 1  IDiag  1:
 RMSU=  1.19D-07    CP:  6.27D-01  3.00D+00  1.27D+00  9.26D-01  1.20D+00
                    CP:  1.46D+00  1.12D+00  1.41D+00  1.41D+00  1.60D+00
                    CP:  1.40D+00  1.42D+00  1.48D+00
 E= -731.387912553139     Delta-E=       -0.000000000076 Rises=F Damp=F
 DIIS: error= 2.32D-07 at cycle  14 NSaved=  14.
 NSaved=14 IEnMin=14 EnMin= -731.387912553139     IErMin=14 ErrMin= 2.32D-07
 ErrMax= 2.32D-07  0.00D+00 EMaxC= 1.00D-01 BMatC= 5.87D-12 BMatP= 3.07D-11
 IDIUse=1 WtCom= 1.00D+00 WtEn= 0.00D+00
 Coeff-Com: -0.143D-06-0.210D-06-0.102D-04-0.337D-04-0.124D-03-0.921D-04
 Coeff-Com:  0.666D-03 0.795D-03 0.373D-02-0.597D-02-0.528D-01-0.273D-01
 Coeff-Com:  0.268D+00 0.813D+00
 Coeff:     -0.143D-06-0.210D-06-0.102D-04-0.337D-04-0.124D-03-0.921D-04
 Coeff:      0.666D-03 0.795D-03 0.373D-02-0.597D-02-0.528D-01-0.273D-01
 Coeff:      0.268D+00 0.813D+00
 Gap=     0.283 Goal=   None    Shift=    0.000
 RMSDP=1.97D-07 MaxDP=2.25D-05 DE=-7.64D-11 OVMax= 2.67D-06

 Cycle  15  Pass 1  IDiag  1:
 RMSU=  5.19D-08    CP:  6.27D-01  3.00D+00  1.27D+00  9.26D-01  1.20D+00
                    CP:  1.46D+00  1.12D+00  1.41D+00  1.41D+00  1.60D+00
                    CP:  1.40D+00  1.45D+00  1.68D+00  1.08D+00
 E= -731.387912553162     Delta-E=       -0.000000000023 Rises=F Damp=F
 DIIS: error= 9.69D-08 at cycle  15 NSaved=  15.
 NSaved=15 IEnMin=15 EnMin= -731.387912553162     IErMin=15 ErrMin= 9.69D-08
 ErrMax= 9.69D-08  0.00D+00 EMaxC= 1.00D-01 BMatC= 1.12D-12 BMatP= 5.87D-12
 IDIUse=1 WtCom= 1.00D+00 WtEn= 0.00D+00
 Coeff-Com: -0.221D-05 0.339D-05 0.870D-05 0.343D-04 0.874D-04-0.935D-04
 Coeff-Com: -0.832D-03-0.554D-03 0.401D-02 0.994D-02-0.133D-01-0.770D-01
 Coeff-Com: -0.102D+00 0.256D+00 0.924D+00
 Coeff:     -0.221D-05 0.339D-05 0.870D-05 0.343D-04 0.874D-04-0.935D-04
 Coeff:     -0.832D-03-0.554D-03 0.401D-02 0.994D-02-0.133D-01-0.770D-01
 Coeff:     -0.102D+00 0.256D+00 0.924D+00
 Gap=     0.283 Goal=   None    Shift=    0.000
 RMSDP=1.30D-07 MaxDP=1.37D-05 DE=-2.30D-11 OVMax= 1.85D-06

 Cycle  16  Pass 1  IDiag  1:
 RMSU=  2.06D-08    CP:  6.27D-01  3.00D+00  1.27D+00  9.26D-01  1.20D+00
                    CP:  1.46D+00  1.12D+00  1.41D+00  1.41D+00  1.60D+00
                    CP:  1.39D+00  1.48D+00  1.80D+00  1.14D+00  1.43D+00
 E= -731.387912553145     Delta-E=        0.000000000017 Rises=F Damp=F
 DIIS: error= 2.39D-08 at cycle  16 NSaved=  16.
 NSaved=16 IEnMin=15 EnMin= -731.387912553162     IErMin=16 ErrMin= 2.39D-08
 ErrMax= 2.39D-08  0.00D+00 EMaxC= 1.00D-01 BMatC= 1.64D-13 BMatP= 1.12D-12
 IDIUse=1 WtCom= 1.00D+00 WtEn= 0.00D+00
 Coeff-Com: -0.189D-06 0.410D-06 0.387D-05 0.134D-04 0.393D-04-0.919D-05
 Coeff-Com: -0.272D-03-0.303D-03 0.614D-03 0.369D-02 0.386D-02-0.116D-01
 Coeff-Com: -0.672D-01-0.645D-01 0.238D+00 0.897D+00
 Coeff:     -0.189D-06 0.410D-06 0.387D-05 0.134D-04 0.393D-04-0.919D-05
 Coeff:     -0.272D-03-0.303D-03 0.614D-03 0.369D-02 0.386D-02-0.116D-01
 Coeff:     -0.672D-01-0.645D-01 0.238D+00 0.897D+00
 Gap=     0.283 Goal=   None    Shift=    0.000
 RMSDP=2.93D-08 MaxDP=3.21D-06 DE= 1.71D-11 OVMax= 5.36D-07

 Cycle  17  Pass 1  IDiag  1:
 RMSU=  5.76D-09    CP:  6.27D-01  3.00D+00  1.27D+00  9.26D-01  1.20D+00
                    CP:  1.46D+00  1.12D+00  1.41D+00  1.41D+00  1.60D+00
                    CP:  1.39D+00  1.48D+00  1.81D+00  1.15D+00  1.67D+00
                    CP:  1.30D+00
 E= -731.387912553239     Delta-E=       -0.000000000094 Rises=F Damp=F
 DIIS: error= 1.30D-08 at cycle  17 NSaved=  17.
 NSaved=17 IEnMin=17 EnMin= -731.387912553239     IErMin=17 ErrMin= 1.30D-08
 ErrMax= 1.30D-08  0.00D+00 EMaxC= 1.00D-01 BMatC= 3.54D-14 BMatP= 1.64D-13
 IDIUse=1 WtCom= 1.00D+00 WtEn= 0.00D+00
 Coeff-Com:  0.252D-06-0.359D-06-0.329D-06-0.190D-05-0.244D-05 0.145D-04
 Coeff-Com:  0.699D-04-0.436D-04-0.645D-03-0.460D-03 0.417D-02 0.119D-01
 Coeff-Com: -0.706D-02-0.814D-01-0.867D-01 0.375D+00 0.786D+00
 Coeff:      0.252D-06-0.359D-06-0.329D-06-0.190D-05-0.244D-05 0.145D-04
 Coeff:      0.699D-04-0.436D-04-0.645D-03-0.460D-03 0.417D-02 0.119D-01
 Coeff:     -0.706D-02-0.814D-01-0.867D-01 0.375D+00 0.786D+00
 Gap=     0.283 Goal=   None    Shift=    0.000
 RMSDP=8.21D-09 MaxDP=4.94D-07 DE=-9.41D-11 OVMax= 1.76D-07

 SCF Done:  E(RwB97XD) =  -731.387912553     A.U. after   17 cycles
            NFock= 17  Conv=0.82D-08     -V/T= 2.0044
 KE= 7.281716332811D+02 PE=-3.580040955978D+03 EE= 1.185708892470D+03
 Leave Link  502 at Thu Nov  2 21:57:48 2017, MaxMem=  3758096384 cpu:      1138.3
 (Enter /share/apps/gaussian/g09_D01/g09/l801.exe)
 DoSCS=F DFT=T ScalE2(SS,OS)=  1.000000  1.000000
 ExpMin= 3.60D-02 ExpMax= 1.14D+04 ExpMxC= 1.72D+03 IAcc=3 IRadAn=         5 AccDes= 0.00D+00
 HarFok:  IExCor=  205 AccDes= 0.00D+00 IRadAn=         5 IDoV=-2 UseB2=F ITyADJ=14
 ICtDFT= 12500011 ScaDFX=  1.000000  1.000000  1.000000  1.000000
 Largest valence mixing into a core orbital is  5.73D-05
 Largest core mixing into a valence orbital is  1.59D-05
 Range of M.O.s used for correlation:    16   412
 NBasis=   414 NAE=    55 NBE=    55 NFC=    15 NFV=     0
 NROrb=    397 NOA=    40 NOB=    40 NVA=   357 NVB=   357

 **** Warning!!: The largest alpha MO coefficient is  0.13974261D+03

 Leave Link  801 at Thu Nov  2 21:57:50 2017, MaxMem=  3758096384 cpu:         3.4
 (Enter /share/apps/gaussian/g09_D01/g09/l914.exe)
 RHF ground state
 MDV=  3758096384 DFT=T DoStab=F Mixed=T DoRPA=T DoScal=F NonHer=T
 Would need an additional         18445000000 words for in-memory AO integral storage.
 Making orbital integer symmetry assigments:
    16 initial guesses have been made.
 Convergence on wavefunction:    0.001000000000000
 Davidson Disk Diagonalization:  ConvIn= 1.00D-03 SkipCon=T Conv= 1.00D-03.
 Max sub-space:   200 roots to seek:    16 dimension of matrix:        28560
 Iteration     1 Dimension    16 NMult     0 NNew     16
 CISAX will form    16 AO SS matrices at one time.
 NMat=    16 NSing=    16 JSym2X= 0.
 FoFJK:  IHMeth= 1 ICntrl=       0 DoSepK=T KAlg= 0 I1Cent=   0 FoldK=F
 IRaf=         1 NMat=  32 IRICut=       1 DoRegI=T DoRafI=F ISym2E= 0.
 FoFCou: FMM=F IPFlag=           0 FMFlag=      100000 FMFlg1=           0
         NFxFlg=           0 DoJE=F BraDBF=F KetDBF=F FulRan=T
         wScrn=  0.000000 ICntrl=     500 IOpCl=  0 I1Cent=           0 NGrid=           0
         NMat0=   16 NMatS0=     16 NMatT0=    0 NMatD0=   16 NMtDS0=    0 NMtDT0=    0
 Symmetry not used in FoFCou.
 New state      2 was old state      7
 New state      3 was old state      2
 New state      4 was old state      3
 Excitation Energies [eV] at current iteration:
 Root      1 :     4.508797225308658
 Root      2 :     4.574407959287993
 Root      3 :     5.321592297950326
 Root      4 :     5.847673846436128
 Root      5 :     5.926346951379430
 Root      6 :     6.346892684374962
 Root      7 :     6.597702718757692
 Root      8 :     6.623763697416179
 Root      9 :     6.862843758024065
 Root     10 :     6.921833740741907
 Root     11 :     7.077698394303359
 Root     12 :     7.108216460358619
 Root     13 :     7.430819760733705
 Root     14 :     7.537133616991275
 Root     15 :     7.782813007163909
 Root     16 :     7.911705633977443
 Iteration     2 Dimension    24 NMult    16 NNew      8
 CISAX will form     8 AO SS matrices at one time.
 NMat=     8 NSing=     8 JSym2X= 0.
 Root      1 not converged, maximum delta is    0.356217837729894
 Root      2 not converged, maximum delta is    0.325274783124633
 Root      3 not converged, maximum delta is    0.112401529029369
 Root      4 not converged, maximum delta is    0.353218389284726
 Excitation Energies [eV] at current iteration:
 Root      1 :     4.026168757546987   Change is   -0.482628467761672
 Root      2 :     4.271468003941223   Change is   -0.302939955346770
 Root      3 :     4.619685580447932   Change is   -0.701906717502393
 Root      4 :     5.521946286790560   Change is   -0.325727559645568
 Iteration     3 Dimension    32 NMult    24 NNew      8
 CISAX will form     8 AO SS matrices at one time.
 NMat=     8 NSing=     8 JSym2X= 0.
 Root      1 not converged, maximum delta is    0.021287158575099
 Root      2 not converged, maximum delta is    0.009636781914281
 Root      3 not converged, maximum delta is    0.029982731274314
 Root      4 not converged, maximum delta is    0.273020307661304
 Excitation Energies [eV] at current iteration:
 Root      1 :     3.982219175232049   Change is   -0.043949582314938
 Root      2 :     4.254687660753587   Change is   -0.016780343187637
 Root      3 :     4.561641454210174   Change is   -0.058044126237758
 Root      4 :     5.291390512507784   Change is   -0.230555774282777
 Iteration     4 Dimension    40 NMult    32 NNew      8
 CISAX will form     8 AO SS matrices at one time.
 NMat=     8 NSing=     8 JSym2X= 0.
 Root      1 not converged, maximum delta is    0.008457562685099
 Root      2 not converged, maximum delta is    0.003940682569135
 Root      3 not converged, maximum delta is    0.010415948994706
 Root      4 not converged, maximum delta is    0.058280831438235
 Excitation Energies [eV] at current iteration:
 Root      1 :     3.974636833967553   Change is   -0.007582341264496
 Root      2 :     4.253028823473475   Change is   -0.001658837280111
 Root      3 :     4.548902835548210   Change is   -0.012738618661963
 Root      4 :     5.206408781710952   Change is   -0.084981730796832
 Iteration     5 Dimension    48 NMult    40 NNew      8
 CISAX will form     8 AO SS matrices at one time.
 NMat=     8 NSing=     8 JSym2X= 0.
 Root      1 not converged, maximum delta is    0.002666594759784
 Root      2 not converged, maximum delta is    0.001350093521271
 Root      3 not converged, maximum delta is    0.003507972476853
 Root      4 not converged, maximum delta is    0.017699250588079
 Excitation Energies [eV] at current iteration:
 Root      1 :     3.973705883424030   Change is   -0.000930950543522
 Root      2 :     4.252887182986015   Change is   -0.000141640487460
 Root      3 :     4.547520906419719   Change is   -0.001381929128491
 Root      4 :     5.195590623641655   Change is   -0.010818158069297
 Iteration     6 Dimension    56 NMult    48 NNew      8
 CISAX will form     8 AO SS matrices at one time.
 NMat=     8 NSing=     8 JSym2X= 0.
 Root      1 not converged, maximum delta is    0.001006535393257
 Root      2 has converged.
 Root      3 not converged, maximum delta is    0.001086137366648
 Root      4 not converged, maximum delta is    0.006606200448795
 Excitation Energies [eV] at current iteration:
 Root      1 :     3.973605076960587   Change is   -0.000100806463443
 Root      2 :     4.252869603253282   Change is   -0.000017579732732
 Root      3 :     4.547377972721790   Change is   -0.000142933697929
 Root      4 :     5.193933258939719   Change is   -0.001657364701936
 Iteration     7 Dimension    62 NMult    56 NNew      6
 CISAX will form     6 AO SS matrices at one time.
 NMat=     6 NSing=     6 JSym2X= 0.
 Root      1 has converged.
 Root      2 has converged.
 Root      3 has converged.
 Root      4 not converged, maximum delta is    0.001765379800388
 Excitation Energies [eV] at current iteration:
 Root      1 :     3.973597232512870   Change is   -0.000007844447717
 Root      2 :     4.252869089021574   Change is   -0.000000514231709
 Root      3 :     4.547362449226084   Change is   -0.000015523495706
 Root      4 :     5.193740305531037   Change is   -0.000192953408681
 Iteration     8 Dimension    64 NMult    62 NNew      2
 CISAX will form     2 AO SS matrices at one time.
 NMat=     2 NSing=     2 JSym2X= 0.
 Root      1 has converged.
 Root      2 has converged.
 Root      3 has converged.
 Root      4 has converged.
 Excitation Energies [eV] at current iteration:
 Root      1 :     3.973597213623460   Change is   -0.000000018889410
 Root      2 :     4.252869082518669   Change is   -0.000000006502905
 Root      3 :     4.547362346898637   Change is   -0.000000102327447
 Root      4 :     5.193725216561555   Change is   -0.000015088969482
 Convergence achieved on expansion vectors.
 ***********************************************************************
 Excited states from <AA,BB:AA,BB> singles matrix:
 ***********************************************************************
 
 1PDM for each excited state written to RWF  633
 Ground to excited state transition densities written to RWF  633
 Ground to excited state transition electric dipole moments (Au):
       state          X           Y           Z        Dip. S.      Osc.
         1        -0.8984      0.2757     -2.2338      5.8729      0.5717
         2         0.0591      0.0058      0.2309      0.0569      0.0059
         3         0.4143     -0.1593      1.2713      1.8132      0.2020
         4         0.0407      0.4270      0.2312      0.2375      0.0302
 Ground to excited state transition velocity dipole moments (Au):
       state          X           Y           Z        Dip. S.      Osc.
         1         0.1304     -0.0421      0.3234      0.1234      0.5632
         2        -0.0081     -0.0005     -0.0351      0.0013      0.0055
         3        -0.0675      0.0244     -0.2082      0.0485      0.1935
         4        -0.0045     -0.0792     -0.0352      0.0075      0.0263
 Ground to excited state transition magnetic dipole moments (Au):
       state          X           Y           Z
         1       -10.1500     -2.2481      3.7567
         2         1.2397     -0.2020     -0.3177
         3         7.6543      1.6355     -2.3865
         4         1.1115      0.3063     -0.6911
 Ground to excited state transition velocity quadrupole moments (Au):
       state          XX          YY          ZZ          XY          XZ          YZ
         1         1.5464      2.8650     -2.3713     -4.4668      1.4954    -10.0860
         2        -0.1003      0.0121      0.1921      0.2331     -0.2172      1.1271
         3        -0.5302     -1.7329      2.9089      2.1970     -0.4144      6.1238
         4        -0.1106      5.1343     -0.4119     -0.3340     -0.4246      1.3724
 <0|del|b> * <b|rxdel|0> + <0|del|b> * <b|delr+rdel|0>
 Rotatory Strengths (R) in cgs (10**-40 erg-esu-cm/Gauss)
       state          XX          YY          ZZ    R(velocity)    E-M Angle
         1      -174.6971     50.5696     56.4669    -22.5535       90.21
         2         6.6877      0.3523     -1.6189      1.8071       88.53
         3       189.3856     52.0065   -155.4283     28.6546       89.35
         4       -40.4839      2.6672     19.5240     -6.0975       92.43
 1/2[<0|r|b>*<b|rxdel|0> + (<0|rxdel|b>*<b|r|0>)*]
 Rotatory Strengths (R) in cgs (10**-40 erg-esu-cm/Gauss)
       state          XX          YY          ZZ     R(length)
         1     -6448.3700    438.2358   5934.3081    -25.2754
         2       -51.7915      0.8309     51.8777      0.3057
         3     -2242.5051    184.2371   2145.4826     29.0715
         4       -32.0250    -92.5086    112.9869     -3.8489
  1/2[<0|del|b>*<b|r|0> + (<0|r|b>*<b|del|0>)*] (Au)
       state          X           Y           Z        Dip. S.   Osc.(frdel)
         1        -0.1171     -0.0116     -0.7224      0.8511      0.5674
         2        -0.0005      0.0000     -0.0081      0.0086      0.0057
         3        -0.0280     -0.0039     -0.2647      0.2966      0.1977
         4        -0.0002     -0.0338     -0.0081      0.0421      0.0281

 Excitation energies and oscillator strengths:
 
 Excited state symmetry could not be determined.
 Excited State   1:      Singlet-?Sym    3.9736 eV  312.02 nm  f=0.5717  <S**2>=0.000
      55 -> 56         0.67975
 This state for optimization and/or second-order correction.
 Total Energy, E(TD-HF/TD-KS) =  -731.241885536    
 Copying the excited state density for this state as the 1-particle RhoCI density.
 
 Excited state symmetry could not be determined.
 Excited State   2:      Singlet-?Sym    4.2529 eV  291.53 nm  f=0.0059  <S**2>=0.000
      52 -> 56         0.67483
      53 -> 56         0.10836
 
 Excited state symmetry could not be determined.
 Excited State   3:      Singlet-?Sym    4.5474 eV  272.65 nm  f=0.2020  <S**2>=0.000
      54 -> 56         0.67083
 
 Excited state symmetry could not be determined.
 Excited State   4:      Singlet-?Sym    5.1937 eV  238.72 nm  f=0.0302  <S**2>=0.000
      53 -> 56         0.55453
      54 -> 59        -0.11365
      54 -> 60         0.10782
      54 -> 61        -0.11153
      55 -> 59        -0.15266
      55 -> 60         0.15111
      55 -> 61        -0.18323
      55 -> 64        -0.10813
 SavETr:  write IOETrn=   770 NScale= 10 NData=  16 NLR=1 NState=    4 LETran=      82.
 Leave Link  914 at Thu Nov  2 22:10:17 2017, MaxMem=  3758096384 cpu:      2972.9
 (Enter /share/apps/gaussian/g09_D01/g09/l601.exe)
 Copying SCF densities to generalized density rwf, IOpCl= 0 IROHF=0.

 **********************************************************************

            Population analysis using the SCF density.

 **********************************************************************

 Alpha  occ. eigenvalues --  -24.81115 -19.24248 -19.23108 -14.50761 -10.38371
 Alpha  occ. eigenvalues --  -10.38142 -10.36524 -10.36156 -10.35279 -10.35176
 Alpha  occ. eigenvalues --  -10.31050 -10.29924 -10.29185 -10.28718 -10.28698
 Alpha  occ. eigenvalues --   -1.31680  -1.15143  -1.11136  -1.10035  -0.96460
 Alpha  occ. eigenvalues --   -0.90406  -0.86929  -0.86042  -0.84763  -0.81338
 Alpha  occ. eigenvalues --   -0.74095  -0.71446  -0.69848  -0.66115  -0.63702
 Alpha  occ. eigenvalues --   -0.63039  -0.60618  -0.59581  -0.59235  -0.57768
 Alpha  occ. eigenvalues --   -0.55172  -0.54720  -0.53119  -0.52671  -0.52443
 Alpha  occ. eigenvalues --   -0.52310  -0.51067  -0.50488  -0.50212  -0.49213
 Alpha  occ. eigenvalues --   -0.47426  -0.46681  -0.45628  -0.43075  -0.42752
 Alpha  occ. eigenvalues --   -0.41749  -0.34407  -0.33522  -0.31100  -0.29093
 Alpha virt. eigenvalues --   -0.00801   0.02172   0.03808   0.04956   0.05061
 Alpha virt. eigenvalues --    0.05333   0.06191   0.06654   0.07375   0.07478
 Alpha virt. eigenvalues --    0.07700   0.08064   0.09166   0.10280   0.10663
 Alpha virt. eigenvalues --    0.10892   0.12271   0.12581   0.12715   0.12994
 Alpha virt. eigenvalues --    0.13430   0.14132   0.14510   0.15137   0.15779
 Alpha virt. eigenvalues --    0.16248   0.16330   0.16575   0.16834   0.17158
 Alpha virt. eigenvalues --    0.17834   0.18070   0.18260   0.18606   0.18901
 Alpha virt. eigenvalues --    0.19337   0.19527   0.20333   0.20625   0.20884
 Alpha virt. eigenvalues --    0.21407   0.21819   0.21996   0.22533   0.23080
 Alpha virt. eigenvalues --    0.23601   0.23835   0.24052   0.24979   0.25209
 Alpha virt. eigenvalues --    0.25593   0.26000   0.26691   0.26908   0.27410
 Alpha virt. eigenvalues --    0.27719   0.28174   0.28387   0.29069   0.29392
 Alpha virt. eigenvalues --    0.30017   0.30251   0.30985   0.31636   0.32089
 Alpha virt. eigenvalues --    0.32845   0.33273   0.34294   0.34576   0.34953
 Alpha virt. eigenvalues --    0.35277   0.35649   0.36371   0.37512   0.37739
 Alpha virt. eigenvalues --    0.37914   0.38276   0.38770   0.39269   0.40064
 Alpha virt. eigenvalues --    0.40571   0.41341   0.42440   0.42684   0.43248
 Alpha virt. eigenvalues --    0.43430   0.44373   0.44687   0.45416   0.46302
 Alpha virt. eigenvalues --    0.47211   0.48813   0.49070   0.49507   0.50070
 Alpha virt. eigenvalues --    0.50727   0.51493   0.52666   0.53761   0.54355
 Alpha virt. eigenvalues --    0.56782   0.56986   0.58911   0.60030   0.61815
 Alpha virt. eigenvalues --    0.62533   0.62957   0.64066   0.64896   0.65148
 Alpha virt. eigenvalues --    0.65973   0.66739   0.67264   0.67723   0.68764
 Alpha virt. eigenvalues --    0.69125   0.69671   0.70412   0.70830   0.70987
 Alpha virt. eigenvalues --    0.72407   0.73337   0.74009   0.74715   0.75560
 Alpha virt. eigenvalues --    0.76010   0.77330   0.77549   0.79501   0.79777
 Alpha virt. eigenvalues --    0.80114   0.80520   0.81042   0.82776   0.84483
 Alpha virt. eigenvalues --    0.85121   0.87683   0.88608   0.90833   0.92440
 Alpha virt. eigenvalues --    0.93130   0.93884   0.94669   0.96056   0.96588
 Alpha virt. eigenvalues --    0.97091   0.98129   1.01196   1.02030   1.02863
 Alpha virt. eigenvalues --    1.03337   1.04847   1.06139   1.06574   1.06989
 Alpha virt. eigenvalues --    1.09837   1.10693   1.10918   1.12259   1.13585
 Alpha virt. eigenvalues --    1.14762   1.16836   1.17272   1.17540   1.18653
 Alpha virt. eigenvalues --    1.20613   1.21386   1.23931   1.26100   1.27787
 Alpha virt. eigenvalues --    1.31369   1.31857   1.34255   1.34529   1.35903
 Alpha virt. eigenvalues --    1.37083   1.39284   1.39972   1.44463   1.47565
 Alpha virt. eigenvalues --    1.49275   1.50113   1.52428   1.52887   1.54015
 Alpha virt. eigenvalues --    1.55423   1.56676   1.57175   1.59039   1.59395
 Alpha virt. eigenvalues --    1.60714   1.61373   1.62217   1.62891   1.63612
 Alpha virt. eigenvalues --    1.63831   1.64417   1.64996   1.66139   1.68549
 Alpha virt. eigenvalues --    1.69183   1.70849   1.71183   1.73347   1.74425
 Alpha virt. eigenvalues --    1.74587   1.76438   1.78653   1.80660   1.80758
 Alpha virt. eigenvalues --    1.81400   1.83545   1.84433   1.85082   1.86258
 Alpha virt. eigenvalues --    1.87950   1.91542   1.94744   1.95912   1.97034
 Alpha virt. eigenvalues --    1.98848   1.99505   2.00339   2.01679   2.03082
 Alpha virt. eigenvalues --    2.04630   2.05498   2.06508   2.07142   2.07285
 Alpha virt. eigenvalues --    2.09157   2.09727   2.13400   2.15202   2.16798
 Alpha virt. eigenvalues --    2.17020   2.17731   2.20525   2.21736   2.21889
 Alpha virt. eigenvalues --    2.23655   2.25503   2.29309   2.29516   2.35752
 Alpha virt. eigenvalues --    2.37889   2.40534   2.41370   2.45236   2.46195
 Alpha virt. eigenvalues --    2.48971   2.49740   2.50825   2.53635   2.53891
 Alpha virt. eigenvalues --    2.56892   2.58410   2.59102   2.62594   2.64168
 Alpha virt. eigenvalues --    2.66795   2.68840   2.69569   2.70878   2.73521
 Alpha virt. eigenvalues --    2.74697   2.75734   2.76929   2.78919   2.82311
 Alpha virt. eigenvalues --    2.82639   2.83317   2.83891   2.84907   2.85396
 Alpha virt. eigenvalues --    2.87903   2.89726   2.92486   2.93181   2.93560
 Alpha virt. eigenvalues --    2.97226   2.97486   2.97920   2.99590   3.02911
 Alpha virt. eigenvalues --    3.05330   3.07760   3.10587   3.12468   3.17880
 Alpha virt. eigenvalues --    3.18567   3.20345   3.21397   3.22253   3.28145
 Alpha virt. eigenvalues --    3.30229   3.31390   3.33980   3.37696   3.40668
 Alpha virt. eigenvalues --    3.46690   3.50289   3.53139   3.56802   3.61169
 Alpha virt. eigenvalues --    3.65731   3.66249   3.69079   3.70834   3.76135
 Alpha virt. eigenvalues --    3.77778   3.79650   3.80026   3.82933   3.87088
 Alpha virt. eigenvalues --    3.88773   3.89876   3.91676   3.95765   4.02443
 Alpha virt. eigenvalues --    4.06197   4.07283   4.11335   4.16753   4.20125
 Alpha virt. eigenvalues --    4.27762   4.31689   4.39297   4.63000   4.91583
 Alpha virt. eigenvalues --    4.93491   4.95296   5.15312   5.16372   5.18815
 Alpha virt. eigenvalues --    5.36581   5.65762   5.83733   5.97894   6.45041
 Alpha virt. eigenvalues --    6.57319   6.83910  23.69011  23.90093  24.00627
 Alpha virt. eigenvalues --   24.02353  24.02981  24.03391  24.05355  24.13582
 Alpha virt. eigenvalues --   24.21710  24.22592  24.29762  35.67779  50.13868
 Alpha virt. eigenvalues --   50.17419  66.95288
          Condensed to atoms (all electrons):
               1          2          3          4          5          6
     1  H    0.528633   0.401411  -0.026065  -0.038459  -0.056362   0.009214
     2  C    0.401411   5.294537   0.409318   0.392225   0.215854  -0.093970
     3  H   -0.026065   0.409318   0.493526  -0.034412  -0.053144  -0.004444
     4  H   -0.038459   0.392225  -0.034412   0.548964  -0.030269   0.005962
     5  N   -0.056362   0.215854  -0.053144  -0.030269   6.831494   0.273895
     6  C    0.009214  -0.093970  -0.004444   0.005962   0.273895   5.222139
     7  C   -0.025024  -0.266360   0.080179   0.044380   0.235013  -0.014409
     8  H    0.002972  -0.004617   0.000133  -0.003177  -0.086929   0.413561
     9  H   -0.003023  -0.017140   0.004130  -0.004064  -0.041665   0.411047
    10  H   -0.004617   0.024656  -0.001616   0.003558  -0.055775   0.392724
    11  H   -0.002381   0.000907  -0.001457   0.003853  -0.065462  -0.039008
    12  C    0.039530   0.550428  -0.104928  -0.013273  -0.292655  -0.182052
    13  C    0.001013  -0.262717   0.021679  -0.052110   0.004194  -0.075760
    14  H   -0.001826   0.033296  -0.019043   0.022444  -0.027409  -0.019910
    15  O    0.000137  -0.000523  -0.000145   0.000242   0.004881   0.001438
    16  C    0.000488  -0.212027   0.014260  -0.008818  -0.020478   0.045610
    17  H   -0.000034  -0.000977   0.000091  -0.000182   0.000374   0.000133
    18  C   -0.002923  -0.012992   0.005026  -0.006331   0.017465  -0.010511
    19  C    0.000933  -0.020469  -0.000441  -0.003287  -0.001106  -0.000581
    20  O    0.000011   0.000180   0.000004  -0.000035  -0.000083   0.000326
    21  H    0.000036  -0.007698   0.003188  -0.009131  -0.001549   0.000182
    22  C   -0.000120   0.017734  -0.003337  -0.002213   0.000568  -0.000848
    23  C    0.000124  -0.000614   0.000245  -0.000209   0.001092  -0.000047
    24  H   -0.000023  -0.000255  -0.000068   0.000255  -0.000010   0.000060
    25  C    0.000052  -0.000480   0.000018  -0.000528   0.000179  -0.000357
    26  H    0.000001   0.000020   0.000003  -0.000019  -0.000012   0.000025
    27  F    0.000000   0.000005   0.000000  -0.000001   0.000000   0.000000
               7          8          9         10         11         12
     1  H   -0.025024   0.002972  -0.003023  -0.004617  -0.002381   0.039530
     2  C   -0.266360  -0.004617  -0.017140   0.024656   0.000907   0.550428
     3  H    0.080179   0.000133   0.004130  -0.001616  -0.001457  -0.104928
     4  H    0.044380  -0.003177  -0.004064   0.003558   0.003853  -0.013273
     5  N    0.235013  -0.086929  -0.041665  -0.055775  -0.065462  -0.292655
     6  C   -0.014409   0.413561   0.411047   0.392724  -0.039008  -0.182052
     7  C   16.894752   0.096391  -0.031520  -0.036823   0.393012  -9.038963
     8  H    0.096391   0.527149  -0.019033  -0.029324  -0.006346  -0.074895
     9  H   -0.031520  -0.019033   0.553567  -0.067290  -0.001150   0.032834
    10  H   -0.036823  -0.029324  -0.067290   0.563378   0.006205   0.029548
    11  H    0.393012  -0.006346  -0.001150   0.006205   0.459674  -0.050390
    12  C   -9.038963  -0.074895   0.032834   0.029548  -0.050390  29.714809
    13  C   -2.687545   0.020474   0.002380  -0.012130   0.098990   0.541174
    14  H   -0.512373  -0.003333  -0.000328   0.002907   0.007916   1.191900
    15  O    0.185684   0.001301  -0.000182  -0.000017   0.007729  -0.415236
    16  C    2.256918   0.019831  -0.000023  -0.004403  -0.032623 -10.970302
    17  H   -0.002964   0.000203   0.000007  -0.000025   0.000571  -0.021926
    18  C   -0.010963  -0.002677  -0.000406   0.000507   0.026309  -1.955352
    19  C   -1.063512   0.003900  -0.000165  -0.000374  -0.039485  -2.487875
    20  O    0.036052  -0.000051  -0.000007   0.000009   0.000219  -0.062342
    21  H    0.019527   0.000656   0.000159  -0.000462  -0.000107  -0.259796
    22  C   -0.736604  -0.001141  -0.000076   0.000430  -0.002021   0.943781
    23  C    0.174561   0.000529   0.000013  -0.000127   0.001263  -0.743134
    24  H   -0.001675  -0.000005   0.000002   0.000007  -0.000142   0.000042
    25  C   -0.079842   0.000020  -0.000028   0.000003   0.000285  -0.351540
    26  H    0.001789   0.000004   0.000000   0.000000  -0.000145  -0.006307
    27  F    0.000292   0.000000   0.000000   0.000000   0.000009   0.002124
              13         14         15         16         17         18
     1  H    0.001013  -0.001826   0.000137   0.000488  -0.000034  -0.002923
     2  C   -0.262717   0.033296  -0.000523  -0.212027  -0.000977  -0.012992
     3  H    0.021679  -0.019043  -0.000145   0.014260   0.000091   0.005026
     4  H   -0.052110   0.022444   0.000242  -0.008818  -0.000182  -0.006331
     5  N    0.004194  -0.027409   0.004881  -0.020478   0.000374   0.017465
     6  C   -0.075760  -0.019910   0.001438   0.045610   0.000133  -0.010511
     7  C   -2.687545  -0.512373   0.185684   2.256918  -0.002964  -0.010963
     8  H    0.020474  -0.003333   0.001301   0.019831   0.000203  -0.002677
     9  H    0.002380  -0.000328  -0.000182  -0.000023   0.000007  -0.000406
    10  H   -0.012130   0.002907  -0.000017  -0.004403  -0.000025   0.000507
    11  H    0.098990   0.007916   0.007729  -0.032623   0.000571   0.026309
    12  C    0.541174   1.191900  -0.415236 -10.970302  -0.021926  -1.955352
    13  C   18.778050   0.065197   0.839244  -4.620602   0.021674  -3.561564
    14  H    0.065197   0.767736  -0.002579  -0.360913  -0.000717  -0.295182
    15  O    0.839244  -0.002579   8.162583  -0.127601   0.091085  -0.204266
    16  C   -4.620602  -0.360913  -0.127601  23.007674  -0.081108  -1.338956
    17  H    0.021674  -0.000717   0.091085  -0.081108   0.265230   0.048202
    18  C   -3.561564  -0.295182  -0.204266  -1.338956   0.048202  22.116710
    19  C   -1.019039   0.068323  -0.114730  -0.033636  -0.018961  -7.875526
    20  O   -0.176709  -0.002454   0.020658   0.188453   0.215854   0.009738
    21  H   -0.064436  -0.058732  -0.003891  -0.156705   0.002141   1.065439
    22  C    2.296748   0.136120   0.004366  -2.059986   0.009015  -5.569035
    23  C   -2.751022  -0.064081  -0.072349  -1.191913   0.045074   4.677530
    24  H    0.015399   0.004730   0.000606   0.108255   0.000354  -0.180505
    25  C   -0.820440  -0.010455  -0.012479  -0.210815  -0.000012   0.227246
    26  H   -0.024991  -0.000966  -0.000601  -0.058477   0.000891   0.073473
    27  F    0.002379  -0.000082  -0.000014   0.012969  -0.000119  -0.051378
              19         20         21         22         23         24
     1  H    0.000933   0.000011   0.000036  -0.000120   0.000124  -0.000023
     2  C   -0.020469   0.000180  -0.007698   0.017734  -0.000614  -0.000255
     3  H   -0.000441   0.000004   0.003188  -0.003337   0.000245  -0.000068
     4  H   -0.003287  -0.000035  -0.009131  -0.002213  -0.000209   0.000255
     5  N   -0.001106  -0.000083  -0.001549   0.000568   0.001092  -0.000010
     6  C   -0.000581   0.000326   0.000182  -0.000848  -0.000047   0.000060
     7  C   -1.063512   0.036052   0.019527  -0.736604   0.174561  -0.001675
     8  H    0.003900  -0.000051   0.000656  -0.001141   0.000529  -0.000005
     9  H   -0.000165  -0.000007   0.000159  -0.000076   0.000013   0.000002
    10  H   -0.000374   0.000009  -0.000462   0.000430  -0.000127   0.000007
    11  H   -0.039485   0.000219  -0.000107  -0.002021   0.001263  -0.000142
    12  C   -2.487875  -0.062342  -0.259796   0.943781  -0.743134   0.000042
    13  C   -1.019039  -0.176709  -0.064436   2.296748  -2.751022   0.015399
    14  H    0.068323  -0.002454  -0.058732   0.136120  -0.064081   0.004730
    15  O   -0.114730   0.020658  -0.003891   0.004366  -0.072349   0.000606
    16  C   -0.033636   0.188453  -0.156705  -2.059986  -1.191913   0.108255
    17  H   -0.018961   0.215854   0.002141   0.009015   0.045074   0.000354
    18  C   -7.875526   0.009738   1.065439  -5.569035   4.677530  -0.180505
    19  C   18.944031   0.284309  -0.152224   2.800817  -2.930246   0.091286
    20  O    0.284309   8.188878  -0.000343  -0.005801  -0.329651   0.000262
    21  H   -0.152224  -0.000343   0.630643  -0.347155   0.217804  -0.031200
    22  C    2.800817  -0.005801  -0.347155  12.969988  -4.181622   0.613176
    23  C   -2.930246  -0.329651   0.217804  -4.181622  13.319848  -0.154399
    24  H    0.091286   0.000262  -0.031200   0.613176  -0.154399   0.479875
    25  C   -0.476806   0.008470   0.048688  -0.153306  -0.167985  -0.167732
    26  H   -0.102289  -0.017691   0.004254  -0.107562   0.704930  -0.002610
    27  F   -0.079367  -0.000394   0.001352  -0.203352  -0.212936  -0.023217
              25         26         27
     1  H    0.000052   0.000001   0.000000
     2  C   -0.000480   0.000020   0.000005
     3  H    0.000018   0.000003   0.000000
     4  H   -0.000528  -0.000019  -0.000001
     5  N    0.000179  -0.000012   0.000000
     6  C   -0.000357   0.000025   0.000000
     7  C   -0.079842   0.001789   0.000292
     8  H    0.000020   0.000004   0.000000
     9  H   -0.000028   0.000000   0.000000
    10  H    0.000003   0.000000   0.000000
    11  H    0.000285  -0.000145   0.000009
    12  C   -0.351540  -0.006307   0.002124
    13  C   -0.820440  -0.024991   0.002379
    14  H   -0.010455  -0.000966  -0.000082
    15  O   -0.012479  -0.000601  -0.000014
    16  C   -0.210815  -0.058477   0.012969
    17  H   -0.000012   0.000891  -0.000119
    18  C    0.227246   0.073473  -0.051378
    19  C   -0.476806  -0.102289  -0.079367
    20  O    0.008470  -0.017691  -0.000394
    21  H    0.048688   0.004254   0.001352
    22  C   -0.153306  -0.107562  -0.203352
    23  C   -0.167985   0.704930  -0.212936
    24  H   -0.167732  -0.002610  -0.023217
    25  C    8.249824  -0.158487   0.606903
    26  H   -0.158487   0.452710  -0.019790
    27  F    0.606903  -0.019790   9.133292
 Mulliken charges:
               1
     1  H    0.176299
     2  C   -0.439730
     3  H    0.217300
     4  H    0.184634
     5  N    0.147898
     6  C   -0.334419
     7  C    0.090026
     8  H    0.144402
     9  H    0.181961
    10  H    0.189050
    11  H    0.233777
    12  C   -0.015204
    13  C   -0.579530
    14  H    0.079813
    15  O   -0.365340
    16  C    1.834928
    17  H    0.426127
    18  C   -1.189079
    19  C    0.226521
    20  O   -0.357860
    21  H    0.099362
    22  C   -0.418564
    23  C   -0.342678
    24  H    0.247534
    25  C   -0.530395
    26  H    0.261844
    27  F   -0.168675
 Sum of Mulliken charges =   0.00000
 Mulliken charges with hydrogens summed into heavy atoms:
               1
     2  C    0.138503
     5  N    0.147898
     6  C    0.180994
     7  C    0.323803
    12  C    0.064608
    13  C   -0.579530
    15  O   -0.365340
    16  C    1.834928
    18  C   -1.089718
    19  C    0.226521
    20  O    0.068267
    22  C   -0.171030
    23  C   -0.080835
    25  C   -0.530395
    27  F   -0.168675
 Electronic spatial extent (au):  <R**2>=         121442.9307
 Charge=              0.0000 electrons
 Dipole moment (field-independent basis, Debye):
    X=             -3.7717    Y=              3.8238    Z=             -8.0738  Tot=              9.6971
 Quadrupole moment (field-independent basis, Debye-Ang):
   XX=           -113.3533   YY=           -219.1480   ZZ=            -47.5737
   XY=             75.2244   XZ=            -13.7856   YZ=            127.1897
 Traceless Quadrupole moment (field-independent basis, Debye-Ang):
   XX=             13.3383   YY=            -92.4563   ZZ=             79.1180
   XY=             75.2244   XZ=            -13.7856   YZ=            127.1897
 Octapole moment (field-independent basis, Debye-Ang**2):
  XXX=          -1009.9833  YYY=           7847.3207  ZZZ=             87.0468  XYY=          -1778.9738
  XXY=           1942.7127  XXZ=            102.6903  XZZ=           -251.0451  YZZ=            808.9993
  YYZ=          -1879.4573  XYZ=            200.3377
 Hexadecapole moment (field-independent basis, Debye-Ang**3):
 XXXX=          -7218.1380 YYYY=        -229691.4437 ZZZZ=          -3935.3022 XXXY=          17145.4497
 XXXZ=            403.0525 YYYX=          44044.5522 YYYZ=          25247.5987 ZZZX=            -25.3361
 ZZZY=          -1624.9536 XXYY=         -34667.4623 XXZZ=          -2058.8447 YYZZ=         -14761.4403
 XXYZ=          -1875.2932 YYXZ=          -2704.0868 ZZXY=           4233.9750
 N-N= 9.347725176742D+02 E-N=-3.580040954215D+03  KE= 7.281716332811D+02
 Leave Link  601 at Thu Nov  2 22:10:17 2017, MaxMem=  3758096384 cpu:         0.2
 (Enter /share/apps/gaussian/g09_D01/g09/l9999.exe)
 1\1\GINC-NXV30\SP\RwB97XD TD-FC\6-311++G(d,p)\C11H12F1N1O2\BTX008\02-N
 ov-2017\0\\#p wb97xd 6-311++G** td=(nstates=4) nosymm\\Title\\0,1\H,0,
 1.241451,-14.781049,-6.056648\C,0,1.917182,-15.109626,-5.253396\H,0,2.
 942488,-14.776579,-5.500933\H,0,1.595839,-14.637766,-4.314693\N,0,1.85
 7142,-16.564408,-5.14808\C,0,1.413453,-17.269346,-6.343196\C,0,2.27275
 9,-17.224258,-4.065401\H,0,1.403192,-18.349141,-6.154426\H,0,0.402315,
 -16.928565,-6.622727\H,0,2.087858,-17.050686,-7.190404\H,0,2.239104,-1
 8.314801,-4.148492\C,0,2.749244,-16.67728,-2.884851\C,0,3.238233,-17.5
 21455,-1.845103\H,0,2.786011,-15.597562,-2.759796\O,0,3.33419,-18.7983
 91,-1.99647\C,0,3.669842,-16.960867,-0.540828\H,0,3.999924,-19.230762,
 -0.814521\C,0,3.454638,-15.623796,-0.159088\C,0,4.288887,-17.834998,0.
 410626\O,0,4.470365,-19.133853,0.133937\H,0,2.925038,-14.945568,-0.826
 469\C,0,3.8455,-15.131172,1.079298\C,0,4.703234,-17.346415,1.661499\H,
 0,3.624914,-14.108983,1.387398\C,0,4.469404,-16.018499,1.952822\H,0,5.
 190022,-18.012269,2.376983\F,0,4.855562,-15.551308,3.189121\\Version=E
 S64L-G09RevD.01\HF=-731.3879126\RMSD=8.213e-09\PG=C01 [X(C11H12F1N1O2)
 ]\\@


 MORNING PEOPLE ARE USUALLY ADMIRED AS EARLY BIRDS.
 RECALL BEN FRANKLIN'S APHORISM THAT THE EARLY BIRD GETS THE WORM.
 I IDENTIFY WITH THE WORM. --  CRAIG JAGGER, MINNEAPOLIS, KS.
 Job cpu time:       0 days  1 hours  9 minutes  8.1 seconds.
 File lengths (MBytes):  RWF=    262 Int=      0 D2E=      0 Chk=     30 Scr=      1
 Normal termination of Gaussian 09 at Thu Nov  2 22:10:19 2017.
