 Entering Gaussian System, Link 0=g09
 Input=mon-1.com
 Output=mon-1.out
 Initial command:
 /share/apps/gaussian/g09_D01/g09/l1.exe "/tmp/165520.1.all.q/Gau-30226.inp" -scrdir="/tmp/165520.1.all.q/"
 Entering Link 1 = /share/apps/gaussian/g09_D01/g09/l1.exe PID=     30227.
  
 Copyright (c) 1988,1990,1992,1993,1995,1998,2003,2009,2013,
            Gaussian, Inc.  All Rights Reserved.
  
 This is part of the Gaussian(R) 09 program.  It is based on
 the Gaussian(R) 03 system (copyright 2003, Gaussian, Inc.),
 the Gaussian(R) 98 system (copyright 1998, Gaussian, Inc.),
 the Gaussian(R) 94 system (copyright 1995, Gaussian, Inc.),
 the Gaussian 92(TM) system (copyright 1992, Gaussian, Inc.),
 the Gaussian 90(TM) system (copyright 1990, Gaussian, Inc.),
 the Gaussian 88(TM) system (copyright 1988, Gaussian, Inc.),
 the Gaussian 86(TM) system (copyright 1986, Carnegie Mellon
 University), and the Gaussian 82(TM) system (copyright 1983,
 Carnegie Mellon University). Gaussian is a federally registered
 trademark of Gaussian, Inc.
  
 This software contains proprietary and confidential information,
 including trade secrets, belonging to Gaussian, Inc.
  
 This software is provided under written license and may be
 used, copied, transmitted, or stored only in accord with that
 written license.
  
 The following legend is applicable only to US Government
 contracts under FAR:
  
                    RESTRICTED RIGHTS LEGEND
  
 Use, reproduction and disclosure by the US Government is
 subject to restrictions as set forth in subparagraphs (a)
 and (c) of the Commercial Computer Software - Restricted
 Rights clause in FAR 52.227-19.
  
 Gaussian, Inc.
 340 Quinnipiac St., Bldg. 40, Wallingford CT 06492
  
  
 ---------------------------------------------------------------
 Warning -- This program may not be used in any manner that
 competes with the business of Gaussian, Inc. or will provide
 assistance to any competitor of Gaussian, Inc.  The licensee
 of this program is prohibited from giving any competitor of
 Gaussian, Inc. access to this program.  By using this program,
 the user acknowledges that Gaussian, Inc. is engaged in the
 business of creating and licensing software in the field of
 computational chemistry and represents and warrants to the
 licensee that it is not a competitor of Gaussian, Inc. and that
 it will not use this program in any manner prohibited above.
 ---------------------------------------------------------------
  

 Cite this work as:
 Gaussian 09, Revision D.01,
 M. J. Frisch, G. W. Trucks, H. B. Schlegel, G. E. Scuseria, 
 M. A. Robb, J. R. Cheeseman, G. Scalmani, V. Barone, B. Mennucci, 
 G. A. Petersson, H. Nakatsuji, M. Caricato, X. Li, H. P. Hratchian, 
 A. F. Izmaylov, J. Bloino, G. Zheng, J. L. Sonnenberg, M. Hada, 
 M. Ehara, K. Toyota, R. Fukuda, J. Hasegawa, M. Ishida, T. Nakajima, 
 Y. Honda, O. Kitao, H. Nakai, T. Vreven, J. A. Montgomery, Jr., 
 J. E. Peralta, F. Ogliaro, M. Bearpark, J. J. Heyd, E. Brothers, 
 K. N. Kudin, V. N. Staroverov, T. Keith, R. Kobayashi, J. Normand, 
 K. Raghavachari, A. Rendell, J. C. Burant, S. S. Iyengar, J. Tomasi, 
 M. Cossi, N. Rega, J. M. Millam, M. Klene, J. E. Knox, J. B. Cross, 
 V. Bakken, C. Adamo, J. Jaramillo, R. Gomperts, R. E. Stratmann, 
 O. Yazyev, A. J. Austin, R. Cammi, C. Pomelli, J. W. Ochterski, 
 R. L. Martin, K. Morokuma, V. G. Zakrzewski, G. A. Voth, 
 P. Salvador, J. J. Dannenberg, S. Dapprich, A. D. Daniels, 
 O. Farkas, J. B. Foresman, J. V. Ortiz, J. Cioslowski, 
 and D. J. Fox, Gaussian, Inc., Wallingford CT, 2013.
 
 ******************************************
 Gaussian 09:  ES64L-G09RevD.01 24-Apr-2013
                 7-Nov-2017 
 ******************************************
 %chk=mon-1.chk
 %nproc=4
 Will use up to    4 processors via shared memory.
 %mem=28GB
 --------------------------------------
 #p wb97xd 6-31G* td=(nstates=4) nosymm
 --------------------------------------
 1/38=1/1;
 2/12=2,15=1,17=6,18=5,40=1/2;
 3/5=1,6=6,7=1,11=9,16=1,25=1,30=1,74=-58/1,2,8,3;
 4//1;
 5/5=2,38=5/2;
 8/6=1,10=2,108=4/1;
 9/41=4,42=1,70=2/14;
 6/7=2,8=2,9=2,10=2/1;
 99/5=1,9=1/99;
 Leave Link    1 at Tue Nov  7 15:16:00 2017, MaxMem=  3758096384 cpu:         0.1
 (Enter /share/apps/gaussian/g09_D01/g09/l101.exe)
 -----
 Title
 -----
 Symbolic Z-matrix:
 Charge =  0 Multiplicity = 1
 C                     9.2273   -0.03097  -1.15335 
 C                     8.9748   -0.56599   1.25346 
 C                     7.04579  -0.68456  -0.24604 
 C                     6.4372   -0.52801  -1.50113 
 C                     6.22755  -1.14954   0.80767 
 C                     5.11155  -0.8321   -1.67984 
 C                     4.91218  -1.45492   0.59879 
 C                     4.30363  -1.30653  -0.65285 
 C                     2.90637  -1.57439  -0.89729 
 C                     1.95272  -1.8266    0.02108 
 C                     0.54433  -1.94186  -0.38777 
 C                    -0.50865  -2.18339   0.62246 
 C                    -0.22252  -2.50409   1.96206 
 C                    -1.86937  -2.06996   0.24374 
 C                    -1.22494  -2.67907   2.89612 
 C                    -2.88312  -2.23055   1.19541 
 C                    -2.56019  -2.52992   2.50536 
 H                     10.24695   0.09264  -0.79026 
 H                     8.9146    0.91781  -1.60988 
 H                     10.00997  -0.22804   1.21379 
 H                     9.23791  -0.7986   -1.93879 
 H                     8.45829   0.03453   2.01295 
 H                     8.97078  -1.61365   1.586 
 H                     7.01002  -0.16689  -2.34743 
 H                     6.64653  -1.29734   1.7961 
 H                     4.67653  -0.69697  -2.66807 
 H                     4.33523  -1.83224   1.43848 
 H                     2.57267  -1.50819  -1.93259 
 H                     2.19398  -1.86732   1.07605 
 H                     0.80726  -2.63206   2.27609 
 H                    -1.41156  -1.7444   -1.553 
 H                    -0.97805  -2.92567   3.92319 
 H                    -3.91404  -2.11821   0.87558 
 H                    -3.35507  -2.65285   3.23497 
 N                     8.36499  -0.40604  -0.05153 
 O                     0.23639  -1.77311  -1.58051 
 O                    -2.24183  -1.77834  -1.01228 
 
 NAtoms=     37 NQM=       37 NQMF=       0 NMMI=      0 NMMIF=      0
                NMic=       0 NMicF=      0.
                    Isotopes and Nuclear Properties:
 (Nuclear quadrupole moments (NQMom) in fm**2, nuclear magnetic moments (NMagM)
  in nuclear magnetons)

  Atom         1           2           3           4           5           6           7           8           9          10
 IAtWgt=          12          12          12          12          12          12          12          12          12          12
 AtmWgt=  12.0000000  12.0000000  12.0000000  12.0000000  12.0000000  12.0000000  12.0000000  12.0000000  12.0000000  12.0000000
 NucSpn=           0           0           0           0           0           0           0           0           0           0
 AtZEff=   0.0000000   0.0000000   0.0000000   0.0000000   0.0000000   0.0000000   0.0000000   0.0000000   0.0000000   0.0000000
 NQMom=    0.0000000   0.0000000   0.0000000   0.0000000   0.0000000   0.0000000   0.0000000   0.0000000   0.0000000   0.0000000
 NMagM=    0.0000000   0.0000000   0.0000000   0.0000000   0.0000000   0.0000000   0.0000000   0.0000000   0.0000000   0.0000000
 AtZNuc=   6.0000000   6.0000000   6.0000000   6.0000000   6.0000000   6.0000000   6.0000000   6.0000000   6.0000000   6.0000000

  Atom        11          12          13          14          15          16          17          18          19          20
 IAtWgt=          12          12          12          12          12          12          12           1           1           1
 AtmWgt=  12.0000000  12.0000000  12.0000000  12.0000000  12.0000000  12.0000000  12.0000000   1.0078250   1.0078250   1.0078250
 NucSpn=           0           0           0           0           0           0           0           1           1           1
 AtZEff=   0.0000000   0.0000000   0.0000000   0.0000000   0.0000000   0.0000000   0.0000000   0.0000000   0.0000000   0.0000000
 NQMom=    0.0000000   0.0000000   0.0000000   0.0000000   0.0000000   0.0000000   0.0000000   0.0000000   0.0000000   0.0000000
 NMagM=    0.0000000   0.0000000   0.0000000   0.0000000   0.0000000   0.0000000   0.0000000   2.7928460   2.7928460   2.7928460
 AtZNuc=   6.0000000   6.0000000   6.0000000   6.0000000   6.0000000   6.0000000   6.0000000   1.0000000   1.0000000   1.0000000

  Atom        21          22          23          24          25          26          27          28          29          30
 IAtWgt=           1           1           1           1           1           1           1           1           1           1
 AtmWgt=   1.0078250   1.0078250   1.0078250   1.0078250   1.0078250   1.0078250   1.0078250   1.0078250   1.0078250   1.0078250
 NucSpn=           1           1           1           1           1           1           1           1           1           1
 AtZEff=   0.0000000   0.0000000   0.0000000   0.0000000   0.0000000   0.0000000   0.0000000   0.0000000   0.0000000   0.0000000
 NQMom=    0.0000000   0.0000000   0.0000000   0.0000000   0.0000000   0.0000000   0.0000000   0.0000000   0.0000000   0.0000000
 NMagM=    2.7928460   2.7928460   2.7928460   2.7928460   2.7928460   2.7928460   2.7928460   2.7928460   2.7928460   2.7928460
 AtZNuc=   1.0000000   1.0000000   1.0000000   1.0000000   1.0000000   1.0000000   1.0000000   1.0000000   1.0000000   1.0000000

  Atom        31          32          33          34          35          36          37
 IAtWgt=           1           1           1           1          14          16          16
 AtmWgt=   1.0078250   1.0078250   1.0078250   1.0078250  14.0030740  15.9949146  15.9949146
 NucSpn=           1           1           1           1           2           0           0
 AtZEff=   0.0000000   0.0000000   0.0000000   0.0000000   0.0000000   0.0000000   0.0000000
 NQMom=    0.0000000   0.0000000   0.0000000   0.0000000   2.0440000   0.0000000   0.0000000
 NMagM=    2.7928460   2.7928460   2.7928460   2.7928460   0.4037610   0.0000000   0.0000000
 AtZNuc=   1.0000000   1.0000000   1.0000000   1.0000000   7.0000000   8.0000000   8.0000000
 Leave Link  101 at Tue Nov  7 15:16:00 2017, MaxMem=  3758096384 cpu:         0.3
 (Enter /share/apps/gaussian/g09_D01/g09/l202.exe)
                          Input orientation:                          
 ---------------------------------------------------------------------
 Center     Atomic      Atomic             Coordinates (Angstroms)
 Number     Number       Type             X           Y           Z
 ---------------------------------------------------------------------
      1          6           0        9.227302   -0.030970   -1.153349
      2          6           0        8.974800   -0.565989    1.253459
      3          6           0        7.045788   -0.684560   -0.246042
      4          6           0        6.437198   -0.528006   -1.501128
      5          6           0        6.227547   -1.149542    0.807668
      6          6           0        5.111548   -0.832102   -1.679839
      7          6           0        4.912184   -1.454922    0.598785
      8          6           0        4.303630   -1.306525   -0.652848
      9          6           0        2.906369   -1.574385   -0.897290
     10          6           0        1.952724   -1.826599    0.021082
     11          6           0        0.544329   -1.941861   -0.387772
     12          6           0       -0.508646   -2.183387    0.622455
     13          6           0       -0.222517   -2.504085    1.962064
     14          6           0       -1.869371   -2.069959    0.243736
     15          6           0       -1.224939   -2.679071    2.896120
     16          6           0       -2.883115   -2.230548    1.195411
     17          6           0       -2.560188   -2.529920    2.505362
     18          1           0       10.246952    0.092641   -0.790262
     19          1           0        8.914603    0.917810   -1.609878
     20          1           0       10.009972   -0.228040    1.213789
     21          1           0        9.237913   -0.798596   -1.938786
     22          1           0        8.458290    0.034530    2.012955
     23          1           0        8.970783   -1.613651    1.586002
     24          1           0        7.010025   -0.166889   -2.347425
     25          1           0        6.646525   -1.297339    1.796101
     26          1           0        4.676532   -0.696973   -2.668067
     27          1           0        4.335226   -1.832237    1.438483
     28          1           0        2.572668   -1.508187   -1.932586
     29          1           0        2.193975   -1.867318    1.076048
     30          1           0        0.807257   -2.632060    2.276089
     31          1           0       -1.411562   -1.744397   -1.552999
     32          1           0       -0.978052   -2.925674    3.923186
     33          1           0       -3.914040   -2.118211    0.875582
     34          1           0       -3.355068   -2.652847    3.234969
     35          7           0        8.364992   -0.406044   -0.051530
     36          8           0        0.236392   -1.773113   -1.580511
     37          8           0       -2.241827   -1.778338   -1.012282
 ---------------------------------------------------------------------
                    Distance matrix (angstroms):
                    1          2          3          4          5
     1  C    0.000000
     2  C    2.478453   0.000000
     3  C    2.451406   2.446150   0.000000
     4  C    2.855289   3.745479   1.403614   0.000000
     5  C    3.754374   2.843706   1.412810   2.400167   0.000000
     6  C    4.225924   4.857959   2.412224   1.371773   2.744797
     7  C    4.870098   4.209946   2.420631   2.755808   1.366407
     8  C    5.110782   5.099238   2.841085   2.424414   2.420580
     9  C    6.511673   6.516781   4.283772   3.731794   3.757339
    10  C    7.584396   7.239989   5.226367   4.910598   4.399004
    11  C    8.923656   8.698247   6.623433   6.161530   5.861383
    12  C   10.127935   9.641052   7.750499   7.449472   6.817583
    13  C   10.252862   9.425974   7.811188   7.762113   6.691094
    14  C   11.368618  10.994431   9.035445   8.626776   8.168554
    15  C   11.517811  10.545052   9.069519   9.092371   7.889274
    16  C   12.530643  11.974317  10.151403   9.850797   9.182760
    17  C   12.592690  11.767762  10.161218  10.050501   9.056042
    18  H    1.089403   2.495788   3.338812   3.924890   4.500224
    19  H    1.098355   3.225520   2.814269   2.870496   4.163982
    20  H    2.500950   1.089662   3.335552   4.497273   3.914184
    21  H    1.098305   3.211505   2.771967   2.847590   4.090046
    22  H    3.259011   1.097379   2.759587   4.092681   2.798385
    23  H    3.174071   1.099180   2.815173   4.138605   2.889039
    24  H    2.522025   4.121406   2.164503   1.083861   3.395952
    25  H    4.118659   2.500040   2.169160   3.392257   1.083691
    26  H    4.842255   5.819848   3.388175   2.119019   3.832910
    27  H    5.821904   4.812823   3.391450   3.841955   2.108288
    28  H    6.861016   7.212899   4.850938   4.010175   4.582113
    29  H    7.603294   6.906846   5.165939   5.142036   4.105720
    30  H    9.456420   8.486647   7.005224   7.098637   5.808069
    31  H   10.783366  10.823187   8.623118   7.942627   8.017642
    32  H   11.760092  10.571415   9.315957   9.495153   8.048711
    33  H   13.459866  12.987470  11.109961  10.738977  10.187969
    34  H   13.581149  12.661240  11.143132  11.083052   9.998911
    35  N    1.448539   1.449291   1.362243   2.415077   2.420678
    36  O    9.168096   9.265436   7.023790   6.325076   6.479674
    37  O   11.602332  11.507219   9.383137   8.782242   8.685499
                    6          7          8          9         10
     6  C    0.000000
     7  C    2.370607   0.000000
     8  C    1.390151   1.399623   0.000000
     9  C    2.454828   2.505156   1.443551   0.000000
    10  C    3.722946   3.038139   2.500284   1.347760   0.000000
    11  C    4.874473   4.504283   3.821814   2.444152   1.471062
    12  C    6.221986   5.469609   5.055026   3.787194   2.558767
    13  C    6.671674   5.415203   5.362641   4.339375   2.993004
    14  C    7.346132   6.818638   6.284317   4.935101   3.836301
    15  C    8.031299   6.666376   6.711492   5.716467   4.369221
    16  C    8.610305   7.856478   7.477913   6.190967   4.992751
    17  C    8.902473   7.786334   7.653952   6.509557   5.199296
    18  H    5.293285   5.725745   6.107342   7.528253   8.551958
    19  H    4.186922   5.150476   5.208133   6.543523   7.658954
    20  H    5.721235   5.279291   6.099984   7.531964   8.300433
    21  H    4.134618   5.057861   5.124332   6.463359   7.613925
    22  H    5.058504   4.097952   5.115284   6.471627   7.053634
    23  H    5.115685   4.179954   5.185469   6.553274   7.193572
    24  H    2.119527   3.839286   3.390418   4.574268   5.825870
    25  H    3.828153   2.113371   3.389188   4.617345   5.046046
    26  H    1.088161   3.361895   2.138157   2.653108   3.990828
    27  H    3.365543   1.086434   2.156626   2.750265   2.772251
    28  H    2.639485   3.447319   2.162088   1.089760   2.074255
    29  H    4.144734   2.790432   2.784639   2.118343   1.082965
    30  H    6.116873   4.587966   4.749773   3.949086   2.654415
    31  H    6.587817   6.686085   5.802191   4.370742   3.715227
    32  H    8.535816   6.921679   7.173416   6.336537   5.002382
    33  H    9.468130   8.855439   8.397918   7.068013   5.935834
    34  H    9.957612   8.759677   8.693869   7.579198   6.259745
    35  N    3.663033   3.666734   4.203226   5.645963   6.568137
    36  O    4.966137   5.168521   4.197700   2.763161   2.348139
    37  O    7.443999   7.340300   6.572276   5.153517   4.320235
                   11         12         13         14         15
    11  C    0.000000
    12  C    1.479071   0.000000
    13  C    2.534932   1.406865   0.000000
    14  C    2.498231   1.416992   2.419348   0.000000
    15  C    3.802333   2.434816   1.381279   2.796686   0.000000
    16  C    3.786447   2.443073   2.782330   1.399697   2.417257
    17  C    4.284164   2.806109   2.400114   2.409096   1.399224
    18  H    9.921799  11.084176  11.132298  12.351165  12.364307
    19  H    8.929320  10.168498  10.390144  11.342696  11.664128
    20  H    9.751952  10.715147  10.509240  12.060367  11.621575
    21  H    8.904555  10.172169  10.374250  11.390853  11.678346
    22  H    8.502964   9.341231   9.044532  10.687357  10.094976
    23  H    8.660752   9.545292   9.243974  10.932467  10.334615
    24  H    6.985413   8.331678   8.737496   9.443488  10.080697
    25  H    6.513179   7.304724   6.976211   8.690642   8.067166
    26  H    4.881044   6.318468   6.978857   7.294692   8.349626
    27  H    4.209290   4.924663   4.636652   6.323050   5.810101
    28  H    2.586249   4.059387   4.896240   4.978321   6.253734
    29  H    2.206730   2.758588   2.651402   4.152660   3.957345
    30  H    2.764355   2.160420   1.084170   3.407456   2.125199
    31  H    2.285226   2.395949   3.787693   1.882508   4.550066
    32  H    4.676526   3.415576   2.143495   3.881372   1.084726
    33  H    4.637264   3.415411   3.867387   2.140614   3.410044
    34  H    5.369828   3.892010   3.384567   3.390358   2.157071
    35  N    7.977127   9.074947   9.066512  10.372945  10.286985
    36  O    1.243353   2.361454   3.646197   2.801827   4.795464
    37  O    2.859968   2.416681   3.667568   1.342143   4.137751
                   16         17         18         19         20
    16  C    0.000000
    17  C    1.381983   0.000000
    18  H   13.481052  13.481906   0.000000
    19  H   12.528685  12.668578   1.768567   0.000000
    20  H   13.047684  12.844288   2.043335   3.238194   0.000000
    21  H   12.601309  12.725687   1.769624   1.777290   3.295503
    22  H   11.594241  11.323680   3.325765   3.756770   1.765029
    23  H   11.876364  11.603795   3.191656   4.077389   1.771546
    24  H   10.709089  10.987376   3.601362   2.312567   4.656787
    25  H    9.594047   9.315893   4.645901   4.653145   3.577047
    26  H    8.627084   9.082631   5.931207   4.657095   6.613190
    27  H    7.233407   7.012255   6.604617   6.150281   5.901413
    28  H    6.330224   6.861890   7.922259   6.797775   8.176304
    29  H    5.091466   5.008398   8.495587   7.754868   7.987241
    30  H    3.866254   3.376786  10.292441   9.665991   9.570672
    31  H    3.155245   4.290301  11.826979  10.663970  11.849299
    32  H    3.399003   2.161018  12.543027  11.968784  11.634205
    33  H    1.085226   2.158380  14.429019  13.415253  14.055790
    34  H    2.135620   1.085943  14.448361  13.666271  13.732777
    35  N   11.463140  11.419637   2.082351   2.117336   2.082949
    36  O    4.200752   5.008790  10.213562   9.085883  10.281937
    37  O    2.343001   3.611101  12.630101  11.493140  12.548522
                   21         22         23         24         25
    21  H    0.000000
    22  H    4.113170   0.000000
    23  H    3.627644   1.778043   0.000000
    24  H    2.351494   4.599017   4.627044   0.000000
    25  H    4.573119   2.259069   2.355073   4.310320   0.000000
    26  H    4.620430   6.062075   6.113754   2.414330   4.916310
    27  H    6.042408   4.562290   4.643052   4.925549   2.399189
    28  H    6.702913   7.251746   7.302565   4.654171   5.526651
    29  H    7.736178   6.613355   6.800700   6.148655   4.546268
    30  H    9.602225   8.106679   8.255697   8.119623   6.009070
    31  H   10.698350  10.643993  10.847281   8.604811   8.737797
    32  H   11.968839  10.072554  10.303550  10.523347   8.081469
    33  H   13.514286  12.609618  12.914253  11.555545  10.632343
    34  H   13.740057  12.176647  12.479007  12.032384  10.195078
    35  N    2.116087   2.113033   2.122925   2.676614   2.676056
    36  O    9.061204   9.153151   9.292030   7.003586   7.260694
    37  O   11.558665  11.266368  11.510900   9.485575   9.333873
                   26         27         28         29         30
    26  H    0.000000
    27  H    4.274233   0.000000
    28  H    2.371760   3.817817   0.000000
    29  H    4.642326   2.171991   3.053565   0.000000
    30  H    6.569667   3.713202   4.700288   1.986936   0.000000
    31  H    6.277369   6.479371   4.009236   4.463955   4.513648
    32  H    8.965826   5.966597   6.993350   4.391818   2.446726
    33  H    9.400813   8.273393   7.094739   6.116452   4.951374
    34  H   10.157651   7.939860   7.946819   6.005820   4.271397
    35  N    4.531627   4.526939   6.189031   6.441134   8.215371
    36  O    4.696349   5.090998   2.377463   3.301259   3.992122
    37  O    7.195461   7.019030   4.909104   4.903609   4.564991
                   31         32         33         34         35
    31  H    0.000000
    32  H    5.618892   0.000000
    33  H    3.507155   4.308122   0.000000
    34  H    5.246631   2.489635   2.482940   0.000000
    35  N    9.981313  10.461328  12.432445  12.377763   0.000000
    36  O    1.648434   5.752734   4.835036   6.071356   8.383364
    37  O    0.991396   5.222294   2.544767   4.476965  10.738289
                   36         37
    36  O    0.000000
    37  O    2.542534   0.000000
 Symmetry turned off by external request.
 Stoichiometry    C17H17NO2
 Framework group  C1[X(C17H17NO2)]
 Deg. of freedom   105
 Full point group                 C1      NOp   1
 Rotational constants (GHZ):      1.0881323      0.1078954      0.0986770
 Leave Link  202 at Tue Nov  7 15:16:00 2017, MaxMem=  3758096384 cpu:         0.0
 (Enter /share/apps/gaussian/g09_D01/g09/l301.exe)
 Standard basis: 6-31G(d) (6D, 7F)
 Ernie: Thresh=  0.10000D-02 Tol=  0.10000D-05 Strict=F.
   334 basis functions,   628 primitive gaussians,   334 cartesian basis functions
    71 alpha electrons       71 beta electrons
       nuclear repulsion energy      1362.9729529780 Hartrees.
 IExCor= 4639 DFT=T Ex+Corr=wB97XD ExCW=0 ScaHFX=  1.000000
 ScaDFX=  1.000000  1.000000  1.000000  1.000000 ScalE2=  1.000000  1.000000
 IRadAn=      0 IRanWt=     -1 IRanGd=            0 ICorTp=0 IEmpDi=121
  HFx wShort=  0.000000 wLong=  0.200000 cFull=  0.222036 cShort=  0.000000 cLong=  0.777964
  DFx wShort=  0.000000 wLong=  0.200000 cFull=  0.000000 cShort=  0.000000 cLong=  1.000000
 NAtoms=   37 NActive=   37 NUniq=   37 SFac= 1.00D+00 NAtFMM=   60 NAOKFM=F Big=F
 Integral buffers will be    131072 words long.
 Raffenetti 1 integral format.
 Two-electron integral symmetry is turned off.
 R6Disp:  Grimme-D2 Dispersion energy=       -0.0229193395 Hartrees.
 Nuclear repulsion after empirical dispersion term =     1362.9500336385 Hartrees.
 Leave Link  301 at Tue Nov  7 15:16:00 2017, MaxMem=  3758096384 cpu:         0.1
 (Enter /share/apps/gaussian/g09_D01/g09/l302.exe)
 NPDir=0 NMtPBC=     1 NCelOv=     1 NCel=       1 NClECP=     1 NCelD=      1
         NCelK=      1 NCelE2=     1 NClLst=     1 CellRange=     0.0.
 One-electron integrals computed using PRISM.
 NBasis=   334 RedAO= T EigKep=  3.54D-04  NBF=   334
 NBsUse=   334 1.00D-06 EigRej= -1.00D+00 NBFU=   334
 Precomputing XC quadrature grid using
 IXCGrd= 4 IRadAn=           0 IRanWt=          -1 IRanGd=           0 AccXCQ= 0.00D+00.
 Generated NRdTot=       0 NPtTot=           0 NUsed=           0 NTot=          32
 NSgBfM=   326   326   326   326   326 MxSgAt=    37 MxSgA2=    37.
 Leave Link  302 at Tue Nov  7 15:16:01 2017, MaxMem=  3758096384 cpu:         1.6
 (Enter /share/apps/gaussian/g09_D01/g09/l308.exe)
 Leave Link  308 at Tue Nov  7 15:16:01 2017, MaxMem=  3758096384 cpu:         0.1
 (Enter /share/apps/gaussian/g09_D01/g09/l303.exe)
 DipDrv:  MaxL=1.
 Leave Link  303 at Tue Nov  7 15:16:01 2017, MaxMem=  3758096384 cpu:         0.1
 (Enter /share/apps/gaussian/g09_D01/g09/l401.exe)
 ExpMin= 1.61D-01 ExpMax= 5.48D+03 ExpMxC= 8.25D+02 IAcc=1 IRadAn=         1 AccDes= 0.00D+00
 Harris functional with IExCor= 4639 and IRadAn=       1 diagonalized for initial guess.
 HarFok:  IExCor= 4639 AccDes= 0.00D+00 IRadAn=         1 IDoV= 1 UseB2=F ITyADJ=14
 ICtDFT=  3500011 ScaDFX=  1.000000  1.000000  1.000000  1.000000
 FoFCou: FMM=F IPFlag=           0 FMFlag=      100000 FMFlg1=           0
         NFxFlg=           0 DoJE=T BraDBF=F KetDBF=T FulRan=T
         wScrn=  0.000000 ICntrl=     500 IOpCl=  0 I1Cent=   200000004 NGrid=           0
         NMat0=    1 NMatS0=      1 NMatT0=    0 NMatD0=    1 NMtDS0=    0 NMtDT0=    0
 Symmetry not used in FoFCou.
 Harris En= -825.232985576701    
 JPrj=0 DoOrth=F DoCkMO=F.
 Leave Link  401 at Tue Nov  7 15:16:02 2017, MaxMem=  3758096384 cpu:         3.6
 (Enter /share/apps/gaussian/g09_D01/g09/l502.exe)
 Closed shell SCF:
 Using DIIS extrapolation, IDIIS=  1040.
 Two-electron integral symmetry not used.
 Keep R1 ints in memory in canonical form, NReq=3149053790.
 IVT=      357300 IEndB=      357300 NGot=  3758096384 MDV=   627840115
 LenX=   627840115 LenY=   627728118
 Requested convergence on RMS density matrix=1.00D-08 within 128 cycles.
 Requested convergence on MAX density matrix=1.00D-06.
 Requested convergence on             energy=1.00D-06.
 No special actions if energy rises.
 FoFCou: FMM=F IPFlag=           0 FMFlag=           0 FMFlg1=           0
         NFxFlg=           0 DoJE=F BraDBF=F KetDBF=F FulRan=T
         wScrn=  0.000000 ICntrl=     600 IOpCl=  0 I1Cent=           0 NGrid=           0
         NMat0=    1 NMatS0=  55945 NMatT0=    0 NMatD0=    1 NMtDS0=    0 NMtDT0=    0
 Symmetry not used in FoFCou.
 Integral accuracy reduced to 1.0D-05 until final iterations.

 Cycle   1  Pass 0  IDiag  1:
 E= -862.702871609493    
 DIIS: error= 6.62D-02 at cycle   1 NSaved=   1.
 NSaved= 1 IEnMin= 1 EnMin= -862.702871609493     IErMin= 1 ErrMin= 6.62D-02
 ErrMax= 6.62D-02  0.00D+00 EMaxC= 1.00D-01 BMatC= 8.35D-01 BMatP= 8.35D-01
 IDIUse=3 WtCom= 3.38D-01 WtEn= 6.62D-01
 Coeff-Com:  0.100D+01
 Coeff-En:   0.100D+01
 Coeff:      0.100D+01
 Gap=     0.298 Goal=   None    Shift=    0.000
 GapD=    0.298 DampG=1.000 DampE=0.500 DampFc=0.5000 IDamp=-1.
 Damping current iteration by 5.00D-01
 RMSDP=3.00D-03 MaxDP=1.44D-01              OVMax= 1.80D-01

 Cycle   2  Pass 0  IDiag  1:
 E= -862.816114240538     Delta-E=       -0.113242631045 Rises=F Damp=T
 DIIS: error= 3.40D-02 at cycle   2 NSaved=   2.
 NSaved= 2 IEnMin= 2 EnMin= -862.816114240538     IErMin= 2 ErrMin= 3.40D-02
 ErrMax= 3.40D-02  0.00D+00 EMaxC= 1.00D-01 BMatC= 1.76D-01 BMatP= 8.35D-01
 IDIUse=3 WtCom= 6.60D-01 WtEn= 3.40D-01
 Coeff-Com: -0.443D+00 0.144D+01
 Coeff-En:   0.000D+00 0.100D+01
 Coeff:     -0.293D+00 0.129D+01
 Gap=     0.283 Goal=   None    Shift=    0.000
 RMSDP=1.31D-03 MaxDP=4.58D-02 DE=-1.13D-01 OVMax= 1.69D-01

 Cycle   3  Pass 0  IDiag  1:
 E= -862.906884559669     Delta-E=       -0.090770319131 Rises=F Damp=F
 DIIS: error= 1.06D-02 at cycle   3 NSaved=   3.
 NSaved= 3 IEnMin= 3 EnMin= -862.906884559669     IErMin= 3 ErrMin= 1.06D-02
 ErrMax= 1.06D-02  0.00D+00 EMaxC= 1.00D-01 BMatC= 4.90D-02 BMatP= 1.76D-01
 IDIUse=3 WtCom= 8.94D-01 WtEn= 1.06D-01
 Coeff-Com: -0.311D+00 0.644D+00 0.667D+00
 Coeff-En:   0.000D+00 0.000D+00 0.100D+01
 Coeff:     -0.278D+00 0.576D+00 0.702D+00
 Gap=     0.267 Goal=   None    Shift=    0.000
 RMSDP=7.91D-04 MaxDP=4.75D-02 DE=-9.08D-02 OVMax= 7.20D-02

 Cycle   4  Pass 0  IDiag  1:
 E= -862.948210862787     Delta-E=       -0.041326303118 Rises=F Damp=F
 DIIS: error= 3.78D-03 at cycle   4 NSaved=   4.
 NSaved= 4 IEnMin= 4 EnMin= -862.948210862787     IErMin= 4 ErrMin= 3.78D-03
 ErrMax= 3.78D-03  0.00D+00 EMaxC= 1.00D-01 BMatC= 3.39D-03 BMatP= 4.90D-02
 IDIUse=3 WtCom= 9.62D-01 WtEn= 3.78D-02
 Coeff-Com: -0.135D+00 0.274D+00 0.378D+00 0.483D+00
 Coeff-En:   0.000D+00 0.000D+00 0.000D+00 0.100D+01
 Coeff:     -0.130D+00 0.264D+00 0.363D+00 0.502D+00
 Gap=     0.252 Goal=   None    Shift=    0.000
 RMSDP=1.74D-04 MaxDP=1.01D-02 DE=-4.13D-02 OVMax= 1.17D-02

 Cycle   5  Pass 0  IDiag  1:
 E= -862.951066171725     Delta-E=       -0.002855308939 Rises=F Damp=F
 DIIS: error= 4.61D-04 at cycle   5 NSaved=   5.
 NSaved= 5 IEnMin= 5 EnMin= -862.951066171725     IErMin= 5 ErrMin= 4.61D-04
 ErrMax= 4.61D-04  0.00D+00 EMaxC= 1.00D-01 BMatC= 8.45D-05 BMatP= 3.39D-03
 IDIUse=3 WtCom= 9.95D-01 WtEn= 4.61D-03
 Coeff-Com: -0.157D-02 0.202D-02 0.344D-01 0.143D+00 0.822D+00
 Coeff-En:   0.000D+00 0.000D+00 0.000D+00 0.000D+00 0.100D+01
 Coeff:     -0.157D-02 0.201D-02 0.343D-01 0.143D+00 0.823D+00
 Gap=     0.252 Goal=   None    Shift=    0.000
 RMSDP=5.41D-05 MaxDP=2.09D-03 DE=-2.86D-03 OVMax= 6.47D-03

 Cycle   6  Pass 0  IDiag  1:
 E= -862.951199452744     Delta-E=       -0.000133281019 Rises=F Damp=F
 DIIS: error= 3.75D-04 at cycle   6 NSaved=   6.
 NSaved= 6 IEnMin= 6 EnMin= -862.951199452744     IErMin= 6 ErrMin= 3.75D-04
 ErrMax= 3.75D-04  0.00D+00 EMaxC= 1.00D-01 BMatC= 2.56D-05 BMatP= 8.45D-05
 IDIUse=3 WtCom= 9.96D-01 WtEn= 3.75D-03
 Coeff-Com:  0.305D-01-0.628D-01-0.686D-01-0.512D-01 0.401D+00 0.751D+00
 Coeff-En:   0.000D+00 0.000D+00 0.000D+00 0.000D+00 0.000D+00 0.100D+01
 Coeff:      0.304D-01-0.626D-01-0.683D-01-0.510D-01 0.399D+00 0.752D+00
 Gap=     0.253 Goal=   None    Shift=    0.000
 RMSDP=2.94D-05 MaxDP=1.32D-03 DE=-1.33D-04 OVMax= 4.93D-03

 Cycle   7  Pass 0  IDiag  1:
 E= -862.951245346881     Delta-E=       -0.000045894137 Rises=F Damp=F
 DIIS: error= 8.46D-05 at cycle   7 NSaved=   7.
 NSaved= 7 IEnMin= 7 EnMin= -862.951245346881     IErMin= 7 ErrMin= 8.46D-05
 ErrMax= 8.46D-05  0.00D+00 EMaxC= 1.00D-01 BMatC= 2.36D-06 BMatP= 2.56D-05
 IDIUse=1 WtCom= 1.00D+00 WtEn= 0.00D+00
 Coeff-Com:  0.816D-02-0.167D-01-0.204D-01-0.256D-01 0.290D-01 0.246D+00
 Coeff-Com:  0.779D+00
 Coeff:      0.816D-02-0.167D-01-0.204D-01-0.256D-01 0.290D-01 0.246D+00
 Coeff:      0.779D+00
 Gap=     0.253 Goal=   None    Shift=    0.000
 RMSDP=1.01D-05 MaxDP=2.55D-04 DE=-4.59D-05 OVMax= 1.47D-03

 Cycle   8  Pass 0  IDiag  1:
 E= -862.951250202399     Delta-E=       -0.000004855518 Rises=F Damp=F
 DIIS: error= 3.28D-05 at cycle   8 NSaved=   8.
 NSaved= 8 IEnMin= 8 EnMin= -862.951250202399     IErMin= 8 ErrMin= 3.28D-05
 ErrMax= 3.28D-05  0.00D+00 EMaxC= 1.00D-01 BMatC= 5.68D-07 BMatP= 2.36D-06
 IDIUse=1 WtCom= 1.00D+00 WtEn= 0.00D+00
 Coeff-Com: -0.298D-02 0.626D-02 0.590D-02-0.570D-03-0.857D-01-0.509D-01
 Coeff-Com:  0.342D+00 0.786D+00
 Coeff:     -0.298D-02 0.626D-02 0.590D-02-0.570D-03-0.857D-01-0.509D-01
 Coeff:      0.342D+00 0.786D+00
 Gap=     0.253 Goal=   None    Shift=    0.000
 RMSDP=5.69D-06 MaxDP=1.53D-04 DE=-4.86D-06 OVMax= 1.05D-03

 Initial convergence to 1.0D-05 achieved.  Increase integral accuracy.
 Cycle   9  Pass 1  IDiag  1:
 E= -862.950541363065     Delta-E=        0.000708839333 Rises=F Damp=F
 DIIS: error= 8.47D-05 at cycle   1 NSaved=   1.
 NSaved= 1 IEnMin= 1 EnMin= -862.950541363065     IErMin= 1 ErrMin= 8.47D-05
 ErrMax= 8.47D-05  0.00D+00 EMaxC= 1.00D-01 BMatC= 6.19D-06 BMatP= 6.19D-06
 IDIUse=1 WtCom= 1.00D+00 WtEn= 0.00D+00
 Coeff-Com:  0.100D+01
 Coeff:      0.100D+01
 Gap=     0.253 Goal=   None    Shift=    0.000
 RMSDP=5.69D-06 MaxDP=1.53D-04 DE= 7.09D-04 OVMax= 2.57D-04

 Cycle  10  Pass 1  IDiag  1:
 E= -862.950546418721     Delta-E=       -0.000005055655 Rises=F Damp=F
 DIIS: error= 1.30D-05 at cycle   2 NSaved=   2.
 NSaved= 2 IEnMin= 2 EnMin= -862.950546418721     IErMin= 2 ErrMin= 1.30D-05
 ErrMax= 1.30D-05  0.00D+00 EMaxC= 1.00D-01 BMatC= 1.61D-07 BMatP= 6.19D-06
 IDIUse=1 WtCom= 1.00D+00 WtEn= 0.00D+00
 Coeff-Com: -0.321D-01 0.103D+01
 Coeff:     -0.321D-01 0.103D+01
 Gap=     0.253 Goal=   None    Shift=    0.000
 RMSDP=2.59D-06 MaxDP=9.35D-05 DE=-5.06D-06 OVMax= 2.52D-04

 Cycle  11  Pass 1  IDiag  1:
 E= -862.950546524962     Delta-E=       -0.000000106241 Rises=F Damp=F
 DIIS: error= 1.69D-05 at cycle   3 NSaved=   3.
 NSaved= 3 IEnMin= 3 EnMin= -862.950546524962     IErMin= 2 ErrMin= 1.30D-05
 ErrMax= 1.69D-05  0.00D+00 EMaxC= 1.00D-01 BMatC= 1.44D-07 BMatP= 1.61D-07
 IDIUse=1 WtCom= 1.00D+00 WtEn= 0.00D+00
 Coeff-Com: -0.379D-01 0.515D+00 0.523D+00
 Coeff:     -0.379D-01 0.515D+00 0.523D+00
 Gap=     0.253 Goal=   None    Shift=    0.000
 RMSDP=1.28D-06 MaxDP=4.82D-05 DE=-1.06D-07 OVMax= 7.72D-05

 Cycle  12  Pass 1  IDiag  1:
 E= -862.950546646834     Delta-E=       -0.000000121872 Rises=F Damp=F
 DIIS: error= 4.92D-06 at cycle   4 NSaved=   4.
 NSaved= 4 IEnMin= 4 EnMin= -862.950546646834     IErMin= 4 ErrMin= 4.92D-06
 ErrMax= 4.92D-06  0.00D+00 EMaxC= 1.00D-01 BMatC= 7.40D-09 BMatP= 1.44D-07
 IDIUse=1 WtCom= 1.00D+00 WtEn= 0.00D+00
 Coeff-Com: -0.780D-02 0.154D-01 0.168D+00 0.825D+00
 Coeff:     -0.780D-02 0.154D-01 0.168D+00 0.825D+00
 Gap=     0.253 Goal=   None    Shift=    0.000
 RMSDP=4.14D-07 MaxDP=1.53D-05 DE=-1.22D-07 OVMax= 5.49D-05

 Cycle  13  Pass 1  IDiag  1:
 E= -862.950546657286     Delta-E=       -0.000000010451 Rises=F Damp=F
 DIIS: error= 2.02D-06 at cycle   5 NSaved=   5.
 NSaved= 5 IEnMin= 5 EnMin= -862.950546657286     IErMin= 5 ErrMin= 2.02D-06
 ErrMax= 2.02D-06  0.00D+00 EMaxC= 1.00D-01 BMatC= 1.21D-09 BMatP= 7.40D-09
 IDIUse=1 WtCom= 1.00D+00 WtEn= 0.00D+00
 Coeff-Com:  0.398D-03-0.382D-01 0.988D-02 0.319D+00 0.708D+00
 Coeff:      0.398D-03-0.382D-01 0.988D-02 0.319D+00 0.708D+00
 Gap=     0.253 Goal=   None    Shift=    0.000
 RMSDP=1.90D-07 MaxDP=7.63D-06 DE=-1.05D-08 OVMax= 2.73D-05

 Cycle  14  Pass 1  IDiag  1:
 E= -862.950546659248     Delta-E=       -0.000000001962 Rises=F Damp=F
 DIIS: error= 8.61D-07 at cycle   6 NSaved=   6.
 NSaved= 6 IEnMin= 6 EnMin= -862.950546659248     IErMin= 6 ErrMin= 8.61D-07
 ErrMax= 8.61D-07  0.00D+00 EMaxC= 1.00D-01 BMatC= 3.19D-10 BMatP= 1.21D-09
 IDIUse=1 WtCom= 1.00D+00 WtEn= 0.00D+00
 Coeff-Com:  0.198D-02-0.221D-01-0.390D-01-0.381D-01 0.333D+00 0.764D+00
 Coeff:      0.198D-02-0.221D-01-0.390D-01-0.381D-01 0.333D+00 0.764D+00
 Gap=     0.253 Goal=   None    Shift=    0.000
 RMSDP=1.13D-07 MaxDP=3.00D-06 DE=-1.96D-09 OVMax= 1.62D-05

 Cycle  15  Pass 1  IDiag  1:
 E= -862.950546659934     Delta-E=       -0.000000000686 Rises=F Damp=F
 DIIS: error= 3.40D-07 at cycle   7 NSaved=   7.
 NSaved= 7 IEnMin= 7 EnMin= -862.950546659934     IErMin= 7 ErrMin= 3.40D-07
 ErrMax= 3.40D-07  0.00D+00 EMaxC= 1.00D-01 BMatC= 3.84D-11 BMatP= 3.19D-10
 IDIUse=1 WtCom= 1.00D+00 WtEn= 0.00D+00
 Coeff-Com:  0.629D-03-0.577D-03-0.165D-01-0.672D-01-0.690D-02 0.239D+00
 Coeff-Com:  0.851D+00
 Coeff:      0.629D-03-0.577D-03-0.165D-01-0.672D-01-0.690D-02 0.239D+00
 Coeff:      0.851D+00
 Gap=     0.253 Goal=   None    Shift=    0.000
 RMSDP=5.60D-08 MaxDP=1.49D-06 DE=-6.86D-10 OVMax= 9.62D-06

 Cycle  16  Pass 1  IDiag  1:
 E= -862.950546660093     Delta-E=       -0.000000000159 Rises=F Damp=F
 DIIS: error= 1.99D-07 at cycle   8 NSaved=   8.
 NSaved= 8 IEnMin= 8 EnMin= -862.950546660093     IErMin= 8 ErrMin= 1.99D-07
 ErrMax= 1.99D-07  0.00D+00 EMaxC= 1.00D-01 BMatC= 7.94D-12 BMatP= 3.84D-11
 IDIUse=1 WtCom= 1.00D+00 WtEn= 0.00D+00
 Coeff-Com: -0.236D-03 0.468D-02 0.229D-02-0.130D-01-0.767D-01-0.984D-01
 Coeff-Com:  0.286D+00 0.895D+00
 Coeff:     -0.236D-03 0.468D-02 0.229D-02-0.130D-01-0.767D-01-0.984D-01
 Coeff:      0.286D+00 0.895D+00
 Gap=     0.253 Goal=   None    Shift=    0.000
 RMSDP=2.76D-08 MaxDP=5.59D-07 DE=-1.59D-10 OVMax= 4.62D-06

 Cycle  17  Pass 1  IDiag  1:
 E= -862.950546660135     Delta-E=       -0.000000000043 Rises=F Damp=F
 DIIS: error= 4.46D-08 at cycle   9 NSaved=   9.
 NSaved= 9 IEnMin= 9 EnMin= -862.950546660135     IErMin= 9 ErrMin= 4.46D-08
 ErrMax= 4.46D-08  0.00D+00 EMaxC= 1.00D-01 BMatC= 8.94D-13 BMatP= 7.94D-12
 IDIUse=1 WtCom= 1.00D+00 WtEn= 0.00D+00
 Coeff-Com: -0.138D-03 0.157D-02 0.228D-02 0.322D-02-0.230D-01-0.565D-01
 Coeff-Com: -0.853D-02 0.293D+00 0.788D+00
 Coeff:     -0.138D-03 0.157D-02 0.228D-02 0.322D-02-0.230D-01-0.565D-01
 Coeff:     -0.853D-02 0.293D+00 0.788D+00
 Gap=     0.253 Goal=   None    Shift=    0.000
 RMSDP=7.31D-09 MaxDP=1.52D-07 DE=-4.27D-11 OVMax= 1.03D-06

 SCF Done:  E(RwB97XD) =  -862.950546660     A.U. after   17 cycles
            NFock= 17  Conv=0.73D-08     -V/T= 2.0091
 KE= 8.551684845247D+02 PE=-4.731182524245D+03 EE= 1.650113459421D+03
 Leave Link  502 at Tue Nov  7 15:17:23 2017, MaxMem=  3758096384 cpu:       214.4
 (Enter /share/apps/gaussian/g09_D01/g09/l801.exe)
 DoSCS=F DFT=T ScalE2(SS,OS)=  1.000000  1.000000
 ExpMin= 1.61D-01 ExpMax= 5.48D+03 ExpMxC= 8.25D+02 IAcc=3 IRadAn=         5 AccDes= 0.00D+00
 HarFok:  IExCor=  205 AccDes= 0.00D+00 IRadAn=         5 IDoV=-2 UseB2=F ITyADJ=14
 ICtDFT= 12500011 ScaDFX=  1.000000  1.000000  1.000000  1.000000
 Largest valence mixing into a core orbital is  7.26D-05
 Largest core mixing into a valence orbital is  1.51D-05
 Range of M.O.s used for correlation:    21   334
 NBasis=   334 NAE=    71 NBE=    71 NFC=    20 NFV=     0
 NROrb=    314 NOA=    51 NOB=    51 NVA=   263 NVB=   263
 Leave Link  801 at Tue Nov  7 15:17:24 2017, MaxMem=  3758096384 cpu:         1.2
 (Enter /share/apps/gaussian/g09_D01/g09/l914.exe)
 RHF ground state
 MDV=  3758096384 DFT=T DoStab=F Mixed=T DoRPA=T DoScal=F NonHer=T
 Would need an additional          5672200000 words for in-memory AO integral storage.
 Making orbital integer symmetry assigments:
    16 initial guesses have been made.
 Convergence on wavefunction:    0.001000000000000
 Davidson Disk Diagonalization:  ConvIn= 1.00D-03 SkipCon=T Conv= 1.00D-03.
 Max sub-space:   200 roots to seek:    16 dimension of matrix:        26826
 Iteration     1 Dimension    16 NMult     0 NNew     16
 CISAX will form    16 AO SS matrices at one time.
 NMat=    16 NSing=    16 JSym2X= 0.
 FoFJK:  IHMeth= 1 ICntrl=       0 DoSepK=T KAlg= 0 I1Cent=   0 FoldK=F
 IRaf=         1 NMat=  32 IRICut=       1 DoRegI=T DoRafI=F ISym2E= 0.
 FoFCou: FMM=F IPFlag=           0 FMFlag=      100000 FMFlg1=           0
         NFxFlg=           0 DoJE=F BraDBF=F KetDBF=F FulRan=T
         wScrn=  0.000000 ICntrl=     500 IOpCl=  0 I1Cent=           0 NGrid=           0
         NMat0=   16 NMatS0=     16 NMatT0=    0 NMatD0=   16 NMtDS0=    0 NMtDT0=    0
 Symmetry not used in FoFCou.
 New state      2 was old state      5
 New state      3 was old state      2
 New state      4 was old state      7
 Excitation Energies [eV] at current iteration:
 Root      1 :     4.127472177816490
 Root      2 :     4.302173375925771
 Root      3 :     4.807722667768571
 Root      4 :     5.132531456655675
 Root      5 :     5.826519412432625
 Root      6 :     6.182295976111186
 Root      7 :     6.388174709943804
 Root      8 :     6.468798121746566
 Root      9 :     6.651118557402237
 Root     10 :     6.903584460900300
 Root     11 :     7.200588407401465
 Root     12 :     7.395796819797028
 Root     13 :     7.851195050613960
 Root     14 :     7.892361370118290
 Root     15 :     8.232237485762822
 Root     16 :     8.275412533603165
 Iteration     2 Dimension    24 NMult    16 NNew      8
 CISAX will form     8 AO SS matrices at one time.
 NMat=     8 NSing=     8 JSym2X= 0.
 Root      1 not converged, maximum delta is    0.058574077445472
 Root      2 not converged, maximum delta is    0.116441547086443
 Root      3 not converged, maximum delta is    0.120989918087263
 Root      4 not converged, maximum delta is    0.073803155170949
 Excitation Energies [eV] at current iteration:
 Root      1 :     3.744122711026628   Change is   -0.383349466789861
 Root      2 :     3.955795567423217   Change is   -0.346377808502554
 Root      3 :     4.273143070365969   Change is   -0.534579597402602
 Root      4 :     4.823284239702816   Change is   -0.309247216952859
 Iteration     3 Dimension    32 NMult    24 NNew      8
 CISAX will form     8 AO SS matrices at one time.
 NMat=     8 NSing=     8 JSym2X= 0.
 Root      1 not converged, maximum delta is    0.014509674912375
 Root      2 not converged, maximum delta is    0.009992599034127
 Root      3 not converged, maximum delta is    0.042056826688363
 Root      4 not converged, maximum delta is    0.037268722070117
 Excitation Energies [eV] at current iteration:
 Root      1 :     3.715529752075195   Change is   -0.028592958951433
 Root      2 :     3.937770499711633   Change is   -0.018025067711584
 Root      3 :     4.221881480242361   Change is   -0.051261590123608
 Root      4 :     4.784692339690972   Change is   -0.038591900011844
 Iteration     4 Dimension    40 NMult    32 NNew      8
 CISAX will form     8 AO SS matrices at one time.
 NMat=     8 NSing=     8 JSym2X= 0.
 Root      1 not converged, maximum delta is    0.007877695500701
 Root      2 not converged, maximum delta is    0.002961694982052
 Root      3 not converged, maximum delta is    0.016819363250701
 Root      4 not converged, maximum delta is    0.003990602993921
 Excitation Energies [eV] at current iteration:
 Root      1 :     3.711968414849962   Change is   -0.003561337225233
 Root      2 :     3.936174565776820   Change is   -0.001595933934813
 Root      3 :     4.213672840724820   Change is   -0.008208639517541
 Root      4 :     4.782485662081164   Change is   -0.002206677609807
 Iteration     5 Dimension    48 NMult    40 NNew      8
 CISAX will form     8 AO SS matrices at one time.
 NMat=     8 NSing=     8 JSym2X= 0.
 Root      1 not converged, maximum delta is    0.001892452999177
 Root      2 has converged.
 Root      3 not converged, maximum delta is    0.002984849033347
 Root      4 not converged, maximum delta is    0.001505417225702
 Excitation Energies [eV] at current iteration:
 Root      1 :     3.711687113954850   Change is   -0.000281300895112
 Root      2 :     3.936057343897135   Change is   -0.000117221879685
 Root      3 :     4.212775714083561   Change is   -0.000897126641260
 Root      4 :     4.782318446606296   Change is   -0.000167215474869
 Iteration     6 Dimension    54 NMult    48 NNew      6
 CISAX will form     6 AO SS matrices at one time.
 NMat=     6 NSing=     6 JSym2X= 0.
 Root      1 has converged.
 Root      2 has converged.
 Root      3 has converged.
 Root      4 has converged.
 Excitation Energies [eV] at current iteration:
 Root      1 :     3.711663288380838   Change is   -0.000023825574012
 Root      2 :     3.936057030066948   Change is   -0.000000313830187
 Root      3 :     4.212702155720636   Change is   -0.000073558362925
 Root      4 :     4.782301784238622   Change is   -0.000016662367674
 Convergence achieved on expansion vectors.
 ***********************************************************************
 Excited states from <AA,BB:AA,BB> singles matrix:
 ***********************************************************************
 
 1PDM for each excited state written to RWF  633
 Ground to excited state transition densities written to RWF  633
 Ground to excited state transition electric dipole moments (Au):
       state          X           Y           Z        Dip. S.      Osc.
         1         3.5116      0.6014     -0.3197     12.7954      1.1635
         2         0.1498      0.0144      0.0027      0.0227      0.0022
         3         0.2860      0.1903      0.1077      0.1296      0.0134
         4        -0.2225     -0.1338      0.4018      0.2288      0.0268
 Ground to excited state transition velocity dipole moments (Au):
       state          X           Y           Z        Dip. S.      Osc.
         1        -0.4709     -0.0785      0.0392      0.2295      1.1216
         2        -0.0221     -0.0007      0.0001      0.0005      0.0022
         3        -0.0394     -0.0292     -0.0110      0.0025      0.0108
         4         0.0334      0.0256     -0.0789      0.0080      0.0304
 Ground to excited state transition magnetic dipole moments (Au):
       state          X           Y           Z
         1        -0.2932      0.3346     -1.9326
         2         0.1538     -0.1592      0.4556
         3         0.0180      1.2257      0.0631
         4         0.2908      0.3348      0.2132
 Ground to excited state transition velocity quadrupole moments (Au):
       state          XX          YY          ZZ          XY          XZ          YZ
         1        -5.5923      0.3745      0.1149      0.7369     -0.1304     -0.1715
         2        -0.2508      0.0003     -0.0012      0.0475      0.0049     -0.0070
         3        -3.0172      0.1403      0.0941     -0.3081     -0.0215      0.0075
         4         0.4739     -0.0841      0.0459      0.1974     -0.9647      0.1141
 <0|del|b> * <b|rxdel|0> + <0|del|b> * <b|delr+rdel|0>
 Rotatory Strengths (R) in cgs (10**-40 erg-esu-cm/Gauss)
       state          XX          YY          ZZ    R(velocity)    E-M Angle
         1      -216.0617    296.2883    107.0755     62.4341       87.82
         2         0.4455     -7.7773     -8.4128     -5.2482      106.75
         3       -76.9160    -11.5812    -81.1235    -56.5402      127.07
         4         1.7262     24.7406    -20.5571      1.9699       88.09
 1/2[<0|r|b>*<b|rxdel|0> + (<0|rxdel|b>*<b|r|0>)*]
 Rotatory Strengths (R) in cgs (10**-40 erg-esu-cm/Gauss)
       state          XX          YY          ZZ     R(length)
         1       728.2219   -142.3023   -436.8944     49.6750
         2       -16.2968      1.6170     -0.8618     -5.1805
         3        -3.6338   -164.9034     -4.8067    -57.7813
         4        45.7530     31.6750    -60.5745      5.6178
  1/2[<0|del|b>*<b|r|0> + (<0|r|b>*<b|del|0>)*] (Au)
       state          X           Y           Z        Dip. S.   Osc.(frdel)
         1        -1.6537     -0.0472     -0.0125      1.7135      1.1423
         2        -0.0033      0.0000      0.0000      0.0033      0.0022
         3        -0.0113     -0.0055     -0.0012      0.0180      0.0120
         4        -0.0074     -0.0034     -0.0317      0.0426      0.0284

 Excitation energies and oscillator strengths:
 
 Excited state symmetry could not be determined.
 Excited State   1:      Singlet-?Sym    3.7117 eV  334.04 nm  f=1.1635  <S**2>=0.000
      66 -> 72        -0.11608
      70 -> 72        -0.18566
      70 -> 73         0.11443
      71 -> 72         0.64128
      71 -> 73         0.10284
 This state for optimization and/or second-order correction.
 Total Energy, E(TD-HF/TD-KS) =  -862.814145538    
 Copying the excited state density for this state as the 1-particle RhoCI density.
 
 Excited state symmetry could not be determined.
 Excited State   2:      Singlet-?Sym    3.9361 eV  315.00 nm  f=0.0022  <S**2>=0.000
      68 -> 72         0.65104
      68 -> 73        -0.10930
      68 -> 76        -0.12811
      69 -> 72         0.12706
 
 Excited state symmetry could not be determined.
 Excited State   3:      Singlet-?Sym    4.2127 eV  294.31 nm  f=0.0134  <S**2>=0.000
      69 -> 75        -0.10975
      70 -> 72         0.62248
      70 -> 73        -0.20889
      71 -> 72         0.18401
      71 -> 73         0.10983
 
 Excited state symmetry could not be determined.
 Excited State   4:      Singlet-?Sym    4.7823 eV  259.26 nm  f=0.0268  <S**2>=0.000
      67 -> 72        -0.29008
      67 -> 73        -0.16493
      71 -> 73         0.14823
      71 -> 74         0.58312
 SavETr:  write IOETrn=   770 NScale= 10 NData=  16 NLR=1 NState=    4 LETran=      82.
 Leave Link  914 at Tue Nov  7 15:20:01 2017, MaxMem=  3758096384 cpu:       628.3
 (Enter /share/apps/gaussian/g09_D01/g09/l601.exe)
 Copying SCF densities to generalized density rwf, IOpCl= 0 IROHF=0.

 **********************************************************************

            Population analysis using the SCF density.

 **********************************************************************

 Alpha  occ. eigenvalues --  -19.27363 -19.25422 -14.48610 -10.38737 -10.36316
 Alpha  occ. eigenvalues --  -10.35276 -10.34049 -10.34037 -10.31656 -10.30881
 Alpha  occ. eigenvalues --  -10.30744 -10.30668 -10.30617 -10.30313 -10.30069
 Alpha  occ. eigenvalues --  -10.30043 -10.29789 -10.29499 -10.29335 -10.29100
 Alpha  occ. eigenvalues --   -1.15387  -1.12194  -1.06817  -0.96400  -0.95157
 Alpha  occ. eigenvalues --   -0.90004  -0.86468  -0.86001  -0.84128  -0.83299
 Alpha  occ. eigenvalues --   -0.83161  -0.78127  -0.73930  -0.71322  -0.70588
 Alpha  occ. eigenvalues --   -0.68864  -0.67156  -0.63845  -0.62474  -0.60623
 Alpha  occ. eigenvalues --   -0.59766  -0.57902  -0.56917  -0.56761  -0.54846
 Alpha  occ. eigenvalues --   -0.54446  -0.53371  -0.52030  -0.51423  -0.51202
 Alpha  occ. eigenvalues --   -0.50693  -0.50584  -0.50338  -0.49371  -0.47546
 Alpha  occ. eigenvalues --   -0.47323  -0.46406  -0.46252  -0.45854  -0.44984
 Alpha  occ. eigenvalues --   -0.44538  -0.41917  -0.41550  -0.41298  -0.40189
 Alpha  occ. eigenvalues --   -0.34081  -0.33609  -0.33246  -0.32786  -0.28860
 Alpha  occ. eigenvalues --   -0.25999
 Alpha virt. eigenvalues --   -0.00689   0.05441   0.07054   0.08805   0.12106
 Alpha virt. eigenvalues --    0.15603   0.16783   0.17768   0.17832   0.19161
 Alpha virt. eigenvalues --    0.19360   0.20401   0.22841   0.23597   0.23962
 Alpha virt. eigenvalues --    0.24280   0.24547   0.25152   0.25243   0.26100
 Alpha virt. eigenvalues --    0.26808   0.27160   0.27892   0.28341   0.29602
 Alpha virt. eigenvalues --    0.32158   0.32510   0.33024   0.33661   0.35112
 Alpha virt. eigenvalues --    0.37607   0.38560   0.40800   0.41191   0.41735
 Alpha virt. eigenvalues --    0.42528   0.43379   0.45309   0.48079   0.48998
 Alpha virt. eigenvalues --    0.51375   0.53068   0.56524   0.56569   0.58864
 Alpha virt. eigenvalues --    0.59432   0.59960   0.60824   0.61104   0.61606
 Alpha virt. eigenvalues --    0.62929   0.63797   0.63893   0.64653   0.65824
 Alpha virt. eigenvalues --    0.66363   0.66788   0.67055   0.67253   0.67823
 Alpha virt. eigenvalues --    0.68665   0.69004   0.69624   0.69782   0.70291
 Alpha virt. eigenvalues --    0.70587   0.71523   0.71936   0.72887   0.73426
 Alpha virt. eigenvalues --    0.74229   0.75973   0.76650   0.77391   0.79143
 Alpha virt. eigenvalues --    0.79649   0.81617   0.82310   0.82628   0.82998
 Alpha virt. eigenvalues --    0.86809   0.87858   0.88122   0.89435   0.90367
 Alpha virt. eigenvalues --    0.91034   0.91874   0.92397   0.93550   0.94361
 Alpha virt. eigenvalues --    0.94749   0.95301   0.95591   0.96223   0.98080
 Alpha virt. eigenvalues --    0.98931   0.99566   1.01001   1.01523   1.02837
 Alpha virt. eigenvalues --    1.03614   1.03962   1.04537   1.05870   1.06362
 Alpha virt. eigenvalues --    1.07296   1.08087   1.08444   1.09439   1.10755
 Alpha virt. eigenvalues --    1.11130   1.12142   1.13750   1.14663   1.15754
 Alpha virt. eigenvalues --    1.17898   1.19401   1.20071   1.21148   1.25487
 Alpha virt. eigenvalues --    1.26309   1.27234   1.28337   1.29690   1.31322
 Alpha virt. eigenvalues --    1.32891   1.33494   1.35627   1.36204   1.39514
 Alpha virt. eigenvalues --    1.40412   1.40837   1.42114   1.44109   1.45489
 Alpha virt. eigenvalues --    1.46944   1.48193   1.49171   1.50220   1.51913
 Alpha virt. eigenvalues --    1.53333   1.53819   1.54182   1.56057   1.56773
 Alpha virt. eigenvalues --    1.57469   1.58373   1.58946   1.59852   1.61093
 Alpha virt. eigenvalues --    1.65047   1.66840   1.69259   1.72820   1.79477
 Alpha virt. eigenvalues --    1.81858   1.82474   1.85481   1.86347   1.86532
 Alpha virt. eigenvalues --    1.87857   1.89025   1.89487   1.90622   1.92384
 Alpha virt. eigenvalues --    1.93852   1.94443   1.95497   1.99293   1.99843
 Alpha virt. eigenvalues --    2.00426   2.01035   2.02351   2.04027   2.04183
 Alpha virt. eigenvalues --    2.06660   2.07638   2.07984   2.09337   2.10043
 Alpha virt. eigenvalues --    2.11985   2.12584   2.15224   2.16921   2.18583
 Alpha virt. eigenvalues --    2.19442   2.19808   2.20842   2.22757   2.23236
 Alpha virt. eigenvalues --    2.23814   2.25544   2.28362   2.30288   2.31076
 Alpha virt. eigenvalues --    2.32432   2.32669   2.35203   2.36971   2.37690
 Alpha virt. eigenvalues --    2.38928   2.40047   2.40232   2.41728   2.42090
 Alpha virt. eigenvalues --    2.46045   2.47554   2.48855   2.51322   2.57031
 Alpha virt. eigenvalues --    2.57546   2.59575   2.60873   2.63322   2.64292
 Alpha virt. eigenvalues --    2.66056   2.68107   2.68828   2.70546   2.71359
 Alpha virt. eigenvalues --    2.72252   2.76223   2.78184   2.78424   2.79420
 Alpha virt. eigenvalues --    2.81369   2.83116   2.87421   2.91523   2.93137
 Alpha virt. eigenvalues --    2.95015   2.99656   3.01069   3.02704   3.06044
 Alpha virt. eigenvalues --    3.06463   3.13528   3.18540   3.24508   3.33686
 Alpha virt. eigenvalues --    3.38528   3.53892   3.56214   4.08877   4.12730
 Alpha virt. eigenvalues --    4.13277   4.19994   4.20152   4.22260   4.23450
 Alpha virt. eigenvalues --    4.24013   4.31270   4.33574   4.36132   4.40279
 Alpha virt. eigenvalues --    4.43360   4.45225   4.48286   4.53987   4.61033
 Alpha virt. eigenvalues --    4.77551   4.86680   4.88992
          Condensed to atoms (all electrons):
               1          2          3          4          5          6
     1  C    5.008064  -0.056620  -0.040505  -0.008263   0.005021  -0.000022
     2  C   -0.056620   5.008760  -0.041362   0.005079  -0.008335  -0.000093
     3  C   -0.040505  -0.041362   4.422547   0.540257   0.530312  -0.015736
     4  C   -0.008263   0.005079   0.540257   5.046149  -0.050386   0.510414
     5  C    0.005021  -0.008335   0.530312  -0.050386   5.033669  -0.050674
     6  C   -0.000022  -0.000093  -0.015736   0.510414  -0.050674   4.988612
     7  C   -0.000088   0.000010  -0.017557  -0.046885   0.531748  -0.049387
     8  C    0.000003   0.000002  -0.023739  -0.032115  -0.030609   0.534891
     9  C    0.000000   0.000000   0.000324   0.007638   0.007168  -0.042832
    10  C    0.000000   0.000000   0.000019  -0.000273   0.000141   0.006325
    11  C    0.000000   0.000000   0.000000   0.000001  -0.000004  -0.000222
    12  C    0.000000   0.000000   0.000000   0.000000   0.000000  -0.000001
    13  C    0.000000   0.000000   0.000000   0.000000   0.000000   0.000000
    14  C    0.000000   0.000000   0.000000   0.000000   0.000000   0.000000
    15  C    0.000000   0.000000   0.000000   0.000000   0.000000   0.000000
    16  C    0.000000   0.000000   0.000000   0.000000   0.000000   0.000000
    17  C    0.000000   0.000000   0.000000   0.000000   0.000000   0.000000
    18  H    0.384517  -0.007154   0.003150   0.000425  -0.000108  -0.000003
    19  H    0.381176   0.002989  -0.003613   0.002833  -0.000092   0.000100
    20  H   -0.007210   0.384318   0.003184  -0.000112   0.000458   0.000002
    21  H    0.379533   0.002841  -0.003062   0.004117   0.000040   0.000047
    22  H    0.003289   0.380654  -0.004443  -0.000040   0.003511   0.000000
    23  H    0.002515   0.379884  -0.002680  -0.000008   0.002962  -0.000002
    24  H    0.007566  -0.000064  -0.035665   0.360700   0.004653  -0.032000
    25  H   -0.000069   0.007778  -0.035887   0.004640   0.361297   0.000534
    26  H   -0.000006   0.000002   0.002786  -0.036566   0.000547   0.362843
    27  H    0.000002  -0.000007   0.002987   0.000412  -0.039743   0.005807
    28  H    0.000000   0.000000  -0.000007   0.000315  -0.000104  -0.005466
    29  H    0.000000   0.000000  -0.000009   0.000011   0.000186   0.000090
    30  H    0.000000   0.000000   0.000000   0.000000   0.000000   0.000000
    31  H    0.000000   0.000000   0.000000   0.000000   0.000000   0.000000
    32  H    0.000000   0.000000   0.000000   0.000000   0.000000   0.000000
    33  H    0.000000   0.000000   0.000000   0.000000   0.000000   0.000000
    34  H    0.000000   0.000000   0.000000   0.000000   0.000000   0.000000
    35  N    0.302986   0.303406   0.336172  -0.076633  -0.074397   0.005382
    36  O    0.000000   0.000000   0.000000   0.000000   0.000000  -0.000033
    37  O    0.000000   0.000000   0.000000   0.000000   0.000000   0.000000
               7          8          9         10         11         12
     1  C   -0.000088   0.000003   0.000000   0.000000   0.000000   0.000000
     2  C    0.000010   0.000002   0.000000   0.000000   0.000000   0.000000
     3  C   -0.017557  -0.023739   0.000324   0.000019   0.000000   0.000000
     4  C   -0.046885  -0.032115   0.007638  -0.000273   0.000001   0.000000
     5  C    0.531748  -0.030609   0.007168   0.000141  -0.000004   0.000000
     6  C   -0.049387   0.534891  -0.042832   0.006325  -0.000222  -0.000001
     7  C    4.964632   0.543828  -0.059075  -0.012279   0.000443   0.000003
     8  C    0.543828   4.647082   0.373234  -0.032146   0.003155  -0.000055
     9  C   -0.059075   0.373234   5.041338   0.521913  -0.005912   0.010188
    10  C   -0.012279  -0.032146   0.521913   5.280800   0.370706  -0.098770
    11  C    0.000443   0.003155  -0.005912   0.370706   4.507862   0.332232
    12  C    0.000003  -0.000055   0.010188  -0.098770   0.332232   5.151417
    13  C    0.000005  -0.000015   0.000239  -0.003750  -0.048717   0.492032
    14  C    0.000000   0.000000  -0.000201   0.006446  -0.036674   0.441477
    15  C    0.000000   0.000000  -0.000010   0.000297   0.004785  -0.026934
    16  C    0.000000   0.000000   0.000000  -0.000157   0.005111  -0.060446
    17  C    0.000000   0.000000   0.000001  -0.000011   0.000112  -0.028428
    18  H    0.000002   0.000000   0.000000   0.000000   0.000000   0.000000
    19  H    0.000000  -0.000004   0.000000   0.000000   0.000000   0.000000
    20  H   -0.000003   0.000000   0.000000   0.000000   0.000000   0.000000
    21  H   -0.000003  -0.000009   0.000000   0.000000   0.000000   0.000000
    22  H    0.000184  -0.000008   0.000000   0.000000   0.000000   0.000000
    23  H    0.000033  -0.000006   0.000000   0.000000   0.000000   0.000000
    24  H    0.000520   0.002530  -0.000171   0.000002   0.000000   0.000000
    25  H   -0.033419   0.002620  -0.000179   0.000004   0.000000   0.000000
    26  H    0.005298  -0.040179  -0.005971   0.000211  -0.000002   0.000000
    27  H    0.358425  -0.033465  -0.011392   0.005273   0.000118   0.000013
    28  H    0.004775  -0.040768   0.367098  -0.056573  -0.007263   0.001059
    29  H    0.003772  -0.008743  -0.042500   0.356922  -0.029734  -0.006541
    30  H    0.000000  -0.000021   0.000374   0.003889  -0.008844  -0.035783
    31  H    0.000000  -0.000002  -0.000069   0.002122  -0.004437  -0.015383
    32  H    0.000000   0.000000   0.000000   0.000011  -0.000114   0.002590
    33  H    0.000000   0.000000   0.000000   0.000002  -0.000090   0.005596
    34  H    0.000000   0.000000   0.000000   0.000000   0.000004   0.000455
    35  N    0.005383   0.000364   0.000000   0.000000   0.000000   0.000000
    36  O    0.000005   0.001279   0.002594  -0.106223   0.488896  -0.077677
    37  O    0.000000   0.000000   0.000015  -0.000150  -0.003891  -0.063265
              13         14         15         16         17         18
     1  C    0.000000   0.000000   0.000000   0.000000   0.000000   0.384517
     2  C    0.000000   0.000000   0.000000   0.000000   0.000000  -0.007154
     3  C    0.000000   0.000000   0.000000   0.000000   0.000000   0.003150
     4  C    0.000000   0.000000   0.000000   0.000000   0.000000   0.000425
     5  C    0.000000   0.000000   0.000000   0.000000   0.000000  -0.000108
     6  C    0.000000   0.000000   0.000000   0.000000   0.000000  -0.000003
     7  C    0.000005   0.000000   0.000000   0.000000   0.000000   0.000002
     8  C   -0.000015   0.000000   0.000000   0.000000   0.000000   0.000000
     9  C    0.000239  -0.000201  -0.000010   0.000000   0.000001   0.000000
    10  C   -0.003750   0.006446   0.000297  -0.000157  -0.000011   0.000000
    11  C   -0.048717  -0.036674   0.004785   0.005111   0.000112   0.000000
    12  C    0.492032   0.441477  -0.026934  -0.060446  -0.028428   0.000000
    13  C    4.985106  -0.034529   0.543913  -0.036812  -0.037973   0.000000
    14  C   -0.034529   4.531283  -0.035182   0.527637  -0.021033   0.000000
    15  C    0.543913  -0.035182   4.903864  -0.039218   0.535426   0.000000
    16  C   -0.036812   0.527637  -0.039218   4.991683   0.547456   0.000000
    17  C   -0.037973  -0.021033   0.535426   0.547456   4.861618   0.000000
    18  H    0.000000   0.000000   0.000000   0.000000   0.000000   0.515307
    19  H    0.000000   0.000000   0.000000   0.000000   0.000000  -0.026469
    20  H    0.000000   0.000000   0.000000   0.000000   0.000000   0.005030
    21  H    0.000000   0.000000   0.000000   0.000000   0.000000  -0.025263
    22  H    0.000000   0.000000   0.000000   0.000000   0.000000   0.000201
    23  H    0.000000   0.000000   0.000000   0.000000   0.000000   0.000301
    24  H    0.000000   0.000000   0.000000   0.000000   0.000000   0.000113
    25  H    0.000000   0.000000   0.000000   0.000000   0.000000  -0.000003
    26  H    0.000000   0.000000   0.000000   0.000000   0.000000   0.000000
    27  H   -0.000025   0.000000   0.000000   0.000000   0.000000   0.000000
    28  H   -0.000019  -0.000005   0.000000   0.000000   0.000000   0.000000
    29  H    0.002989  -0.000108   0.000486   0.000002  -0.000007   0.000000
    30  H    0.360400   0.002854  -0.037188   0.000400   0.004125   0.000000
    31  H    0.000004  -0.019832   0.000002   0.004543  -0.000165   0.000000
    32  H   -0.034123   0.000632   0.370838   0.003440  -0.036841   0.000000
    33  H    0.000195  -0.029377   0.003773   0.358392  -0.037934   0.000000
    34  H    0.004131   0.003361  -0.037667  -0.035476   0.368125   0.000000
    35  N    0.000000   0.000000   0.000000   0.000000   0.000000  -0.031325
    36  O    0.003946  -0.000848  -0.000034   0.000550  -0.000014   0.000000
    37  O    0.004126   0.338470   0.000073  -0.060624   0.003197   0.000000
              19         20         21         22         23         24
     1  C    0.381176  -0.007210   0.379533   0.003289   0.002515   0.007566
     2  C    0.002989   0.384318   0.002841   0.380654   0.379884  -0.000064
     3  C   -0.003613   0.003184  -0.003062  -0.004443  -0.002680  -0.035665
     4  C    0.002833  -0.000112   0.004117  -0.000040  -0.000008   0.360700
     5  C   -0.000092   0.000458   0.000040   0.003511   0.002962   0.004653
     6  C    0.000100   0.000002   0.000047   0.000000  -0.000002  -0.032000
     7  C    0.000000  -0.000003  -0.000003   0.000184   0.000033   0.000520
     8  C   -0.000004   0.000000  -0.000009  -0.000008  -0.000006   0.002530
     9  C    0.000000   0.000000   0.000000   0.000000   0.000000  -0.000171
    10  C    0.000000   0.000000   0.000000   0.000000   0.000000   0.000002
    11  C    0.000000   0.000000   0.000000   0.000000   0.000000   0.000000
    12  C    0.000000   0.000000   0.000000   0.000000   0.000000   0.000000
    13  C    0.000000   0.000000   0.000000   0.000000   0.000000   0.000000
    14  C    0.000000   0.000000   0.000000   0.000000   0.000000   0.000000
    15  C    0.000000   0.000000   0.000000   0.000000   0.000000   0.000000
    16  C    0.000000   0.000000   0.000000   0.000000   0.000000   0.000000
    17  C    0.000000   0.000000   0.000000   0.000000   0.000000   0.000000
    18  H   -0.026469   0.005030  -0.025263   0.000201   0.000301   0.000113
    19  H    0.551437   0.000400  -0.045234   0.000316  -0.000354   0.000077
    20  H    0.000400   0.516002   0.000089  -0.024325  -0.027787  -0.000003
    21  H   -0.045234   0.000089   0.551695  -0.000325   0.000599  -0.000182
    22  H    0.000316  -0.024325  -0.000325   0.547179  -0.045328  -0.000001
    23  H   -0.000354  -0.027787   0.000599  -0.045328   0.558159  -0.000001
    24  H    0.000077  -0.000003  -0.000182  -0.000001  -0.000001   0.545004
    25  H   -0.000002   0.000129   0.000001  -0.000413   0.000145  -0.000137
    26  H   -0.000001   0.000000  -0.000001   0.000000   0.000000  -0.004771
    27  H    0.000000   0.000000   0.000000  -0.000003   0.000000   0.000016
    28  H    0.000000   0.000000   0.000000   0.000000   0.000000  -0.000009
    29  H    0.000000   0.000000   0.000000   0.000000   0.000000   0.000000
    30  H    0.000000   0.000000   0.000000   0.000000   0.000000   0.000000
    31  H    0.000000   0.000000   0.000000   0.000000   0.000000   0.000000
    32  H    0.000000   0.000000   0.000000   0.000000   0.000000   0.000000
    33  H    0.000000   0.000000   0.000000   0.000000   0.000000   0.000000
    34  H    0.000000   0.000000   0.000000   0.000000   0.000000   0.000000
    35  N   -0.045557  -0.031513  -0.046537  -0.043780  -0.047731  -0.010886
    36  O    0.000000   0.000000   0.000000   0.000000   0.000000   0.000000
    37  O    0.000000   0.000000   0.000000   0.000000   0.000000   0.000000
              25         26         27         28         29         30
     1  C   -0.000069  -0.000006   0.000002   0.000000   0.000000   0.000000
     2  C    0.007778   0.000002  -0.000007   0.000000   0.000000   0.000000
     3  C   -0.035887   0.002786   0.002987  -0.000007  -0.000009   0.000000
     4  C    0.004640  -0.036566   0.000412   0.000315   0.000011   0.000000
     5  C    0.361297   0.000547  -0.039743  -0.000104   0.000186   0.000000
     6  C    0.000534   0.362843   0.005807  -0.005466   0.000090   0.000000
     7  C   -0.033419   0.005298   0.358425   0.004775   0.003772   0.000000
     8  C    0.002620  -0.040179  -0.033465  -0.040768  -0.008743  -0.000021
     9  C   -0.000179  -0.005971  -0.011392   0.367098  -0.042500   0.000374
    10  C    0.000004   0.000211   0.005273  -0.056573   0.356922   0.003889
    11  C    0.000000  -0.000002   0.000118  -0.007263  -0.029734  -0.008844
    12  C    0.000000   0.000000   0.000013   0.001059  -0.006541  -0.035783
    13  C    0.000000   0.000000  -0.000025  -0.000019   0.002989   0.360400
    14  C    0.000000   0.000000   0.000000  -0.000005  -0.000108   0.002854
    15  C    0.000000   0.000000   0.000000   0.000000   0.000486  -0.037188
    16  C    0.000000   0.000000   0.000000   0.000000   0.000002   0.000400
    17  C    0.000000   0.000000   0.000000   0.000000  -0.000007   0.004125
    18  H   -0.000003   0.000000   0.000000   0.000000   0.000000   0.000000
    19  H   -0.000002  -0.000001   0.000000   0.000000   0.000000   0.000000
    20  H    0.000129   0.000000   0.000000   0.000000   0.000000   0.000000
    21  H    0.000001  -0.000001   0.000000   0.000000   0.000000   0.000000
    22  H   -0.000413   0.000000  -0.000003   0.000000   0.000000   0.000000
    23  H    0.000145   0.000000   0.000000   0.000000   0.000000   0.000000
    24  H   -0.000137  -0.004771   0.000016  -0.000009   0.000000   0.000000
    25  H    0.547521   0.000016  -0.004956   0.000002   0.000004   0.000000
    26  H    0.000016   0.538692  -0.000162   0.005476   0.000007   0.000000
    27  H   -0.004956  -0.000162   0.550624  -0.000036   0.003510   0.000030
    28  H    0.000002   0.005476  -0.000036   0.510175   0.004681  -0.000002
    29  H    0.000004   0.000007   0.003510   0.004681   0.548763   0.003824
    30  H    0.000000   0.000000   0.000030  -0.000002   0.003824   0.542314
    31  H    0.000000   0.000000   0.000000  -0.000067  -0.000054  -0.000002
    32  H    0.000000   0.000000   0.000000   0.000000  -0.000004  -0.004103
    33  H    0.000000   0.000000   0.000000   0.000000   0.000000   0.000013
    34  H    0.000000   0.000000   0.000000   0.000000   0.000000  -0.000166
    35  N   -0.010980  -0.000104  -0.000104   0.000000   0.000000   0.000000
    36  O    0.000000  -0.000004   0.000002   0.017870   0.002470   0.000005
    37  O    0.000000   0.000000   0.000000   0.000009   0.000004  -0.000042
              31         32         33         34         35         36
     1  C    0.000000   0.000000   0.000000   0.000000   0.302986   0.000000
     2  C    0.000000   0.000000   0.000000   0.000000   0.303406   0.000000
     3  C    0.000000   0.000000   0.000000   0.000000   0.336172   0.000000
     4  C    0.000000   0.000000   0.000000   0.000000  -0.076633   0.000000
     5  C    0.000000   0.000000   0.000000   0.000000  -0.074397   0.000000
     6  C    0.000000   0.000000   0.000000   0.000000   0.005382  -0.000033
     7  C    0.000000   0.000000   0.000000   0.000000   0.005383   0.000005
     8  C   -0.000002   0.000000   0.000000   0.000000   0.000364   0.001279
     9  C   -0.000069   0.000000   0.000000   0.000000   0.000000   0.002594
    10  C    0.002122   0.000011   0.000002   0.000000   0.000000  -0.106223
    11  C   -0.004437  -0.000114  -0.000090   0.000004   0.000000   0.488896
    12  C   -0.015383   0.002590   0.005596   0.000455   0.000000  -0.077677
    13  C    0.000004  -0.034123   0.000195   0.004131   0.000000   0.003946
    14  C   -0.019832   0.000632  -0.029377   0.003361   0.000000  -0.000848
    15  C    0.000002   0.370838   0.003773  -0.037667   0.000000  -0.000034
    16  C    0.004543   0.003440   0.358392  -0.035476   0.000000   0.000550
    17  C   -0.000165  -0.036841  -0.037934   0.368125   0.000000  -0.000014
    18  H    0.000000   0.000000   0.000000   0.000000  -0.031325   0.000000
    19  H    0.000000   0.000000   0.000000   0.000000  -0.045557   0.000000
    20  H    0.000000   0.000000   0.000000   0.000000  -0.031513   0.000000
    21  H    0.000000   0.000000   0.000000   0.000000  -0.046537   0.000000
    22  H    0.000000   0.000000   0.000000   0.000000  -0.043780   0.000000
    23  H    0.000000   0.000000   0.000000   0.000000  -0.047731   0.000000
    24  H    0.000000   0.000000   0.000000   0.000000  -0.010886   0.000000
    25  H    0.000000   0.000000   0.000000   0.000000  -0.010980   0.000000
    26  H    0.000000   0.000000   0.000000   0.000000  -0.000104  -0.000004
    27  H    0.000000   0.000000   0.000000   0.000000  -0.000104   0.000002
    28  H   -0.000067   0.000000   0.000000   0.000000   0.000000   0.017870
    29  H   -0.000054  -0.000004   0.000000   0.000000   0.000000   0.002470
    30  H   -0.000002  -0.004103   0.000013  -0.000166   0.000000   0.000005
    31  H    0.275101   0.000000   0.000020   0.000003   0.000000   0.078103
    32  H    0.000000   0.536954  -0.000123  -0.003806   0.000000   0.000000
    33  H    0.000020  -0.000123   0.521112  -0.004557   0.000000   0.000010
    34  H    0.000003  -0.003806  -0.004557   0.533467   0.000000   0.000000
    35  N    0.000000   0.000000   0.000000   0.000000   6.967226   0.000000
    36  O    0.078103   0.000000   0.000010   0.000000   0.000000   8.210026
    37  O    0.213983   0.000002   0.000157  -0.000058   0.000000  -0.044538
              37
     1  C    0.000000
     2  C    0.000000
     3  C    0.000000
     4  C    0.000000
     5  C    0.000000
     6  C    0.000000
     7  C    0.000000
     8  C    0.000000
     9  C    0.000015
    10  C   -0.000150
    11  C   -0.003891
    12  C   -0.063265
    13  C    0.004126
    14  C    0.338470
    15  C    0.000073
    16  C   -0.060624
    17  C    0.003197
    18  H    0.000000
    19  H    0.000000
    20  H    0.000000
    21  H    0.000000
    22  H    0.000000
    23  H    0.000000
    24  H    0.000000
    25  H    0.000000
    26  H    0.000000
    27  H    0.000000
    28  H    0.000009
    29  H    0.000004
    30  H   -0.000042
    31  H    0.213983
    32  H    0.000002
    33  H    0.000157
    34  H   -0.000058
    35  N    0.000000
    36  O   -0.044538
    37  O    8.281653
 Mulliken charges:
               1
     1  C   -0.361888
     2  C   -0.362089
     3  C    0.382527
     4  C   -0.231711
     5  C   -0.227262
     6  C   -0.218578
     7  C   -0.200368
     8  C    0.132897
     9  C   -0.163813
    10  C   -0.244750
    11  C    0.432480
    12  C   -0.023779
    13  C   -0.201123
    14  C    0.325629
    15  C   -0.187224
    16  C   -0.206483
    17  C   -0.157653
    18  H    0.181278
    19  H    0.182000
    20  H    0.181342
    21  H    0.181654
    22  H    0.183332
    23  H    0.179300
    24  H    0.162710
    25  H    0.161355
    26  H    0.171889
    27  H    0.162676
    28  H    0.198858
    29  H    0.159979
    30  H    0.167925
    31  H    0.466127
    32  H    0.164647
    33  H    0.182811
    34  H    0.172184
    35  N   -0.501373
    36  O   -0.576385
    37  O   -0.669121
 Sum of Mulliken charges =   0.00000
 Mulliken charges with hydrogens summed into heavy atoms:
               1
     1  C    0.183044
     2  C    0.181885
     3  C    0.382527
     4  C   -0.069001
     5  C   -0.065906
     6  C   -0.046689
     7  C   -0.037693
     8  C    0.132897
     9  C    0.035045
    10  C   -0.084771
    11  C    0.432480
    12  C   -0.023779
    13  C   -0.033199
    14  C    0.325629
    15  C   -0.022576
    16  C   -0.023672
    17  C    0.014531
    35  N   -0.501373
    36  O   -0.576385
    37  O   -0.202994
 Electronic spatial extent (au):  <R**2>=          15544.8298
 Charge=              0.0000 electrons
 Dipole moment (field-independent basis, Debye):
    X=              7.1715    Y=              0.6910    Z=              2.5308  Tot=              7.6363
 Quadrupole moment (field-independent basis, Debye-Ang):
   XX=            -50.2550   YY=           -121.5180   ZZ=           -107.1291
   XY=             -0.8810   XZ=             -2.3526   YZ=             -8.2811
 Traceless Quadrupole moment (field-independent basis, Debye-Ang):
   XX=             42.7124   YY=            -28.5506   ZZ=            -14.1618
   XY=             -0.8810   XZ=             -2.3526   YZ=             -8.2811
 Octapole moment (field-independent basis, Debye-Ang**2):
  XXX=           -358.5436  YYY=            539.0723  ZZZ=            -43.5453  XYY=           -346.1219
  XXY=            169.1127  XXZ=              3.1487  XZZ=           -298.3594  YZZ=            156.0310
  YYZ=             -3.9909  XYZ=             -6.6286
 Hexadecapole moment (field-independent basis, Debye-Ang**3):
 XXXX=         -11012.1191 YYYY=          -2191.2509 ZZZZ=          -1364.5311 XXXY=            483.6029
 XXXZ=            496.8856 YYYX=            454.7920 YYYZ=            296.8371 ZZZX=            454.8918
 ZZZY=            235.3647 XXYY=          -3391.0150 XXZZ=          -2862.7153 YYZZ=           -561.6086
 XXYZ=            -33.9437 YYXZ=            187.3101 ZZXY=            148.1248
 N-N= 1.362950033639D+03 E-N=-4.731182524032D+03  KE= 8.551684845247D+02
 Leave Link  601 at Tue Nov  7 15:20:01 2017, MaxMem=  3758096384 cpu:         0.2
 (Enter /share/apps/gaussian/g09_D01/g09/l9999.exe)
 1\1\GINC-NXN37\SP\RwB97XD TD-FC\6-31G(d)\C17H17N1O2\BTX008\07-Nov-2017
 \0\\#p wb97xd 6-31G* td=(nstates=4) nosymm\\Title\\0,1\C,0,9.227302,-0
 .03097,-1.153349\C,0,8.9748,-0.565989,1.253459\C,0,7.045788,-0.68456,-
 0.246042\C,0,6.437198,-0.528006,-1.501128\C,0,6.227547,-1.149542,0.807
 668\C,0,5.111548,-0.832102,-1.679839\C,0,4.912184,-1.454922,0.598785\C
 ,0,4.30363,-1.306525,-0.652848\C,0,2.906369,-1.574385,-0.89729\C,0,1.9
 52724,-1.826599,0.021082\C,0,0.544329,-1.941861,-0.387772\C,0,-0.50864
 6,-2.183387,0.622455\C,0,-0.222517,-2.504085,1.962064\C,0,-1.869371,-2
 .069959,0.243736\C,0,-1.224939,-2.679071,2.89612\C,0,-2.883115,-2.2305
 48,1.195411\C,0,-2.560188,-2.52992,2.505362\H,0,10.246952,0.092641,-0.
 790262\H,0,8.914603,0.91781,-1.609878\H,0,10.009972,-0.22804,1.213789\
 H,0,9.237913,-0.798596,-1.938786\H,0,8.45829,0.03453,2.012955\H,0,8.97
 0783,-1.613651,1.586002\H,0,7.010025,-0.166889,-2.347425\H,0,6.646525,
 -1.297339,1.796101\H,0,4.676532,-0.696973,-2.668067\H,0,4.335226,-1.83
 2237,1.438483\H,0,2.572668,-1.508187,-1.932586\H,0,2.193975,-1.867318,
 1.076048\H,0,0.807257,-2.63206,2.276089\H,0,-1.411562,-1.744397,-1.552
 999\H,0,-0.978052,-2.925674,3.923186\H,0,-3.91404,-2.118211,0.875582\H
 ,0,-3.355068,-2.652847,3.234969\N,0,8.364992,-0.406044,-0.05153\O,0,0.
 236392,-1.773113,-1.580511\O,0,-2.241827,-1.778338,-1.012282\\Version=
 ES64L-G09RevD.01\HF=-862.9505467\RMSD=7.310e-09\PG=C01 [X(C17H17N1O2)]
 \\@


 ALTHOUGH J.J. COULD DIAGNOSE THE FAULTS OF AN
 APPARATUS WITH UNCANNY ACCURACY, IT WAS JUST AS
 WELL NOT TO LET HIM HANDLE IT.
   -- GEORGE THOMPSON, ABOUT HIS FATHER
 Job cpu time:       0 days  0 hours 14 minutes 11.0 seconds.
 File lengths (MBytes):  RWF=    231 Int=      0 D2E=      0 Chk=     52 Scr=      1
 Normal termination of Gaussian 09 at Tue Nov  7 15:20:01 2017.
