 Entering Gaussian System, Link 0=g09
 Input=mon-0.com
 Output=mon-0.out
 Initial command:
 /share/apps/gaussian/g09_D01/g09/l1.exe "/tmp/165519.1.all.q/Gau-26384.inp" -scrdir="/tmp/165519.1.all.q/"
 Entering Link 1 = /share/apps/gaussian/g09_D01/g09/l1.exe PID=     26385.
  
 Copyright (c) 1988,1990,1992,1993,1995,1998,2003,2009,2013,
            Gaussian, Inc.  All Rights Reserved.
  
 This is part of the Gaussian(R) 09 program.  It is based on
 the Gaussian(R) 03 system (copyright 2003, Gaussian, Inc.),
 the Gaussian(R) 98 system (copyright 1998, Gaussian, Inc.),
 the Gaussian(R) 94 system (copyright 1995, Gaussian, Inc.),
 the Gaussian 92(TM) system (copyright 1992, Gaussian, Inc.),
 the Gaussian 90(TM) system (copyright 1990, Gaussian, Inc.),
 the Gaussian 88(TM) system (copyright 1988, Gaussian, Inc.),
 the Gaussian 86(TM) system (copyright 1986, Carnegie Mellon
 University), and the Gaussian 82(TM) system (copyright 1983,
 Carnegie Mellon University). Gaussian is a federally registered
 trademark of Gaussian, Inc.
  
 This software contains proprietary and confidential information,
 including trade secrets, belonging to Gaussian, Inc.
  
 This software is provided under written license and may be
 used, copied, transmitted, or stored only in accord with that
 written license.
  
 The following legend is applicable only to US Government
 contracts under FAR:
  
                    RESTRICTED RIGHTS LEGEND
  
 Use, reproduction and disclosure by the US Government is
 subject to restrictions as set forth in subparagraphs (a)
 and (c) of the Commercial Computer Software - Restricted
 Rights clause in FAR 52.227-19.
  
 Gaussian, Inc.
 340 Quinnipiac St., Bldg. 40, Wallingford CT 06492
  
  
 ---------------------------------------------------------------
 Warning -- This program may not be used in any manner that
 competes with the business of Gaussian, Inc. or will provide
 assistance to any competitor of Gaussian, Inc.  The licensee
 of this program is prohibited from giving any competitor of
 Gaussian, Inc. access to this program.  By using this program,
 the user acknowledges that Gaussian, Inc. is engaged in the
 business of creating and licensing software in the field of
 computational chemistry and represents and warrants to the
 licensee that it is not a competitor of Gaussian, Inc. and that
 it will not use this program in any manner prohibited above.
 ---------------------------------------------------------------
  

 Cite this work as:
 Gaussian 09, Revision D.01,
 M. J. Frisch, G. W. Trucks, H. B. Schlegel, G. E. Scuseria, 
 M. A. Robb, J. R. Cheeseman, G. Scalmani, V. Barone, B. Mennucci, 
 G. A. Petersson, H. Nakatsuji, M. Caricato, X. Li, H. P. Hratchian, 
 A. F. Izmaylov, J. Bloino, G. Zheng, J. L. Sonnenberg, M. Hada, 
 M. Ehara, K. Toyota, R. Fukuda, J. Hasegawa, M. Ishida, T. Nakajima, 
 Y. Honda, O. Kitao, H. Nakai, T. Vreven, J. A. Montgomery, Jr., 
 J. E. Peralta, F. Ogliaro, M. Bearpark, J. J. Heyd, E. Brothers, 
 K. N. Kudin, V. N. Staroverov, T. Keith, R. Kobayashi, J. Normand, 
 K. Raghavachari, A. Rendell, J. C. Burant, S. S. Iyengar, J. Tomasi, 
 M. Cossi, N. Rega, J. M. Millam, M. Klene, J. E. Knox, J. B. Cross, 
 V. Bakken, C. Adamo, J. Jaramillo, R. Gomperts, R. E. Stratmann, 
 O. Yazyev, A. J. Austin, R. Cammi, C. Pomelli, J. W. Ochterski, 
 R. L. Martin, K. Morokuma, V. G. Zakrzewski, G. A. Voth, 
 P. Salvador, J. J. Dannenberg, S. Dapprich, A. D. Daniels, 
 O. Farkas, J. B. Foresman, J. V. Ortiz, J. Cioslowski, 
 and D. J. Fox, Gaussian, Inc., Wallingford CT, 2013.
 
 ******************************************
 Gaussian 09:  ES64L-G09RevD.01 24-Apr-2013
                 7-Nov-2017 
 ******************************************
 %chk=mon-0.chk
 %nproc=4
 Will use up to    4 processors via shared memory.
 %mem=28GB
 --------------------------------------
 #p wb97xd 6-31G* td=(nstates=4) nosymm
 --------------------------------------
 1/38=1/1;
 2/12=2,15=1,17=6,18=5,40=1/2;
 3/5=1,6=6,7=1,11=9,16=1,25=1,30=1,74=-58/1,2,8,3;
 4//1;
 5/5=2,38=5/2;
 8/6=1,10=2,108=4/1;
 9/41=4,42=1,70=2/14;
 6/7=2,8=2,9=2,10=2/1;
 99/5=1,9=1/99;
 Leave Link    1 at Tue Nov  7 15:12:01 2017, MaxMem=  3758096384 cpu:         0.3
 (Enter /share/apps/gaussian/g09_D01/g09/l101.exe)
 -----
 Title
 -----
 Symbolic Z-matrix:
 Charge =  0 Multiplicity = 1
 C                     3.1199    4.3045    0.58792 
 C                     3.40601   1.97942  -0.22134 
 C                     1.16594   2.89465   0.13652 
 C                     0.29045   3.93822   0.47507 
 C                     0.58102   1.65422  -0.20298 
 C                    -1.06673   3.73892   0.48469 
 C                    -0.77404   1.48078  -0.17479 
 C                    -1.64976   2.51703   0.16882 
 C                    -3.08701   2.38206   0.16283 
 C                    -3.81162   1.29609  -0.17138 
 C                    -5.27778   1.34447  -0.07661 
 C                    -6.08869   0.16861  -0.47277 
 C                    -5.52597  -0.9727   -1.07324 
 C                    -7.48754   0.18073  -0.23748 
 C                    -6.29655  -2.07155  -1.40755 
 C                    -8.2612   -0.93991  -0.57402 
 C                    -7.6714   -2.04944  -1.14875 
 H                     4.2051    4.21185   0.55081 
 H                     2.83114   5.15292  -0.04771 
 H                     4.43603   2.3354   -0.24382 
 H                     2.83457   4.54422   1.6219 
 H                     3.17185   1.58082  -1.21658 
 H                     3.35033   1.14371   0.48973 
 H                     0.67852   4.91677   0.73465 
 H                     1.20763   0.81619  -0.48347 
 H                    -1.71227   4.57403   0.74977 
 H                    -1.17253   0.5133   -0.46323 
 H                    -3.65341   3.26032   0.47225 
 H                    -3.33116   0.3813   -0.49604 
 H                    -4.46416  -1.00676  -1.28851 
 H                    -7.43397   1.92166   0.44547 
 H                    -5.83411  -2.93773  -1.86912 
 H                    -9.32684  -0.8986   -0.37453 
 H                    -8.28599  -2.90772  -1.40641 
 N                     2.51733   3.06617   0.13878 
 O                    -5.83998   2.36455   0.35867 
 O                    -8.1217    1.22351   0.30463 
 
 NAtoms=     37 NQM=       37 NQMF=       0 NMMI=      0 NMMIF=      0
                NMic=       0 NMicF=      0.
                    Isotopes and Nuclear Properties:
 (Nuclear quadrupole moments (NQMom) in fm**2, nuclear magnetic moments (NMagM)
  in nuclear magnetons)

  Atom         1           2           3           4           5           6           7           8           9          10
 IAtWgt=          12          12          12          12          12          12          12          12          12          12
 AtmWgt=  12.0000000  12.0000000  12.0000000  12.0000000  12.0000000  12.0000000  12.0000000  12.0000000  12.0000000  12.0000000
 NucSpn=           0           0           0           0           0           0           0           0           0           0
 AtZEff=   0.0000000   0.0000000   0.0000000   0.0000000   0.0000000   0.0000000   0.0000000   0.0000000   0.0000000   0.0000000
 NQMom=    0.0000000   0.0000000   0.0000000   0.0000000   0.0000000   0.0000000   0.0000000   0.0000000   0.0000000   0.0000000
 NMagM=    0.0000000   0.0000000   0.0000000   0.0000000   0.0000000   0.0000000   0.0000000   0.0000000   0.0000000   0.0000000
 AtZNuc=   6.0000000   6.0000000   6.0000000   6.0000000   6.0000000   6.0000000   6.0000000   6.0000000   6.0000000   6.0000000

  Atom        11          12          13          14          15          16          17          18          19          20
 IAtWgt=          12          12          12          12          12          12          12           1           1           1
 AtmWgt=  12.0000000  12.0000000  12.0000000  12.0000000  12.0000000  12.0000000  12.0000000   1.0078250   1.0078250   1.0078250
 NucSpn=           0           0           0           0           0           0           0           1           1           1
 AtZEff=   0.0000000   0.0000000   0.0000000   0.0000000   0.0000000   0.0000000   0.0000000   0.0000000   0.0000000   0.0000000
 NQMom=    0.0000000   0.0000000   0.0000000   0.0000000   0.0000000   0.0000000   0.0000000   0.0000000   0.0000000   0.0000000
 NMagM=    0.0000000   0.0000000   0.0000000   0.0000000   0.0000000   0.0000000   0.0000000   2.7928460   2.7928460   2.7928460
 AtZNuc=   6.0000000   6.0000000   6.0000000   6.0000000   6.0000000   6.0000000   6.0000000   1.0000000   1.0000000   1.0000000

  Atom        21          22          23          24          25          26          27          28          29          30
 IAtWgt=           1           1           1           1           1           1           1           1           1           1
 AtmWgt=   1.0078250   1.0078250   1.0078250   1.0078250   1.0078250   1.0078250   1.0078250   1.0078250   1.0078250   1.0078250
 NucSpn=           1           1           1           1           1           1           1           1           1           1
 AtZEff=   0.0000000   0.0000000   0.0000000   0.0000000   0.0000000   0.0000000   0.0000000   0.0000000   0.0000000   0.0000000
 NQMom=    0.0000000   0.0000000   0.0000000   0.0000000   0.0000000   0.0000000   0.0000000   0.0000000   0.0000000   0.0000000
 NMagM=    2.7928460   2.7928460   2.7928460   2.7928460   2.7928460   2.7928460   2.7928460   2.7928460   2.7928460   2.7928460
 AtZNuc=   1.0000000   1.0000000   1.0000000   1.0000000   1.0000000   1.0000000   1.0000000   1.0000000   1.0000000   1.0000000

  Atom        31          32          33          34          35          36          37
 IAtWgt=           1           1           1           1          14          16          16
 AtmWgt=   1.0078250   1.0078250   1.0078250   1.0078250  14.0030740  15.9949146  15.9949146
 NucSpn=           1           1           1           1           2           0           0
 AtZEff=   0.0000000   0.0000000   0.0000000   0.0000000   0.0000000   0.0000000   0.0000000
 NQMom=    0.0000000   0.0000000   0.0000000   0.0000000   2.0440000   0.0000000   0.0000000
 NMagM=    2.7928460   2.7928460   2.7928460   2.7928460   0.4037610   0.0000000   0.0000000
 AtZNuc=   1.0000000   1.0000000   1.0000000   1.0000000   7.0000000   8.0000000   8.0000000
 Leave Link  101 at Tue Nov  7 15:12:01 2017, MaxMem=  3758096384 cpu:         0.3
 (Enter /share/apps/gaussian/g09_D01/g09/l202.exe)
                          Input orientation:                          
 ---------------------------------------------------------------------
 Center     Atomic      Atomic             Coordinates (Angstroms)
 Number     Number       Type             X           Y           Z
 ---------------------------------------------------------------------
      1          6           0        3.119895    4.304495    0.587922
      2          6           0        3.406013    1.979423   -0.221340
      3          6           0        1.165935    2.894648    0.136516
      4          6           0        0.290447    3.938217    0.475065
      5          6           0        0.581023    1.654217   -0.202979
      6          6           0       -1.066732    3.738921    0.484685
      7          6           0       -0.774037    1.480777   -0.174791
      8          6           0       -1.649761    2.517031    0.168822
      9          6           0       -3.087013    2.382061    0.162825
     10          6           0       -3.811624    1.296094   -0.171378
     11          6           0       -5.277783    1.344474   -0.076607
     12          6           0       -6.088691    0.168613   -0.472766
     13          6           0       -5.525972   -0.972700   -1.073238
     14          6           0       -7.487544    0.180725   -0.237483
     15          6           0       -6.296545   -2.071552   -1.407550
     16          6           0       -8.261195   -0.939906   -0.574023
     17          6           0       -7.671399   -2.049445   -1.148749
     18          1           0        4.205103    4.211846    0.550813
     19          1           0        2.831137    5.152918   -0.047709
     20          1           0        4.436029    2.335403   -0.243819
     21          1           0        2.834573    4.544216    1.621898
     22          1           0        3.171852    1.580818   -1.216582
     23          1           0        3.350334    1.143709    0.489732
     24          1           0        0.678515    4.916768    0.734648
     25          1           0        1.207627    0.816194   -0.483465
     26          1           0       -1.712274    4.574028    0.749770
     27          1           0       -1.172529    0.513299   -0.463228
     28          1           0       -3.653405    3.260315    0.472253
     29          1           0       -3.331162    0.381302   -0.496044
     30          1           0       -4.464161   -1.006755   -1.288511
     31          1           0       -7.433968    1.921655    0.445473
     32          1           0       -5.834113   -2.937725   -1.869124
     33          1           0       -9.326835   -0.898598   -0.374528
     34          1           0       -8.285993   -2.907716   -1.406407
     35          7           0        2.517329    3.066170    0.138779
     36          8           0       -5.839978    2.364554    0.358673
     37          8           0       -8.121704    1.223510    0.304626
 ---------------------------------------------------------------------
                    Distance matrix (angstroms):
                    1          2          3          4          5
     1  C    0.000000
     2  C    2.478453   0.000000
     3  C    2.451407   2.446149   0.000000
     4  C    2.855288   3.745478   1.403614   0.000000
     5  C    3.754380   2.843706   1.412816   2.400174   0.000000
     6  C    4.225917   4.857958   2.412223   1.371768   2.744808
     7  C    4.870095   4.209944   2.420627   2.755803   1.366405
     8  C    5.110801   5.099225   2.841088   2.424451   2.420554
     9  C    6.511695   6.516831   4.283807   3.731803   3.757400
    10  C    7.594272   7.250084   5.237009   4.921960   4.407335
    11  C    8.928848   8.708181   6.630985   6.167417   5.868349
    12  C   10.150302   9.669108   7.773808   7.470054   6.838486
    13  C   10.264466   9.445693   7.823139   7.768209   6.704732
    14  C   11.410720  11.041067   9.076781   8.667388   8.202082
    15  C   11.545788  10.580979   9.095927   9.113179   7.914120
    16  C   12.585033  12.032066  10.201934   9.900871   9.222362
    17  C   12.642808  11.823744  10.207567  10.093555   9.094727
    18  H    1.089788   2.493688   3.338142   3.924938   4.499292
    19  H    1.098740   3.229814   2.811871   2.864245   4.162695
    20  H    2.510244   1.090028   3.339300   4.502406   3.914940
    21  H    1.099082   3.209709   2.777010   2.855703   4.093990
    22  H    3.267622   1.097371   2.753312   4.089192   2.783015
    23  H    3.170696   1.098700   2.821728   4.143959   2.899922
    24  H    2.521258   4.120820   2.164327   1.084224   3.396011
    25  H    4.119816   2.500942   2.169351   3.392201   1.083322
    26  H    4.842386   5.819956   3.388286   2.119106   3.833046
    27  H    5.822627   4.813634   3.391007   3.840671   2.108167
    28  H    6.854289   7.208130   4.844839   4.001691   4.578850
    29  H    7.627749   6.929573   5.190464   5.168244   4.124487
    30  H    9.447131   8.485031   6.996401   7.083025   5.806293
    31  H   10.820455  10.860625   8.660283   7.983357   8.045626
    32  H   11.775444  10.595917   9.329514   9.501791   8.063246
    33  H   13.524776  13.054957  11.169069  10.798551  10.232885
    34  H   13.641394  12.727589  11.197633  11.133825  10.044075
    35  N    1.448539   1.449298   1.362237   2.415069   2.420680
    36  O    9.170346   9.272168   7.029450   6.330251   6.484542
    37  O   11.659600  11.564441   9.438284   8.840982   8.728151
                    6          7          8          9         10
     6  C    0.000000
     7  C    2.370610   0.000000
     8  C    1.390218   1.399566   0.000000
     9  C    2.454832   2.505226   1.443588   0.000000
    10  C    3.732594   3.043198   2.506008   1.347619   0.000000
    11  C    4.876615   4.506878   3.820690   2.435855   1.470015
    12  C    6.235694   5.482345   5.062687   3.783305   2.558727
    13  C    6.671680   5.422881   5.361525   4.327909   2.983248
    14  C    7.376253   6.838512   6.301041   4.936679   3.841979
    15  C    8.043202   6.681080   6.718083   5.709802   4.363942
    16  C    8.647114   7.878872   7.497552   6.192784   4.996049
    17  C    8.932800   7.809268   7.671298   6.509613   5.200553
    18  H    5.293418   5.725127   6.107188   7.528187   8.561021
    19  H    4.180456   5.147626   5.203194   6.538079   7.682230
    20  H    5.725466   5.280146   6.102467   7.534169   8.313194
    21  H    4.142696   5.063084   5.131292   6.470625   7.611706
    22  H    5.051466   4.082325   5.103312   6.458959   7.066998
    23  H    5.123048   4.191138   5.195185   6.563522   7.194020
    24  H    2.120305   3.839664   3.391130   4.575032   5.838794
    25  H    3.827840   2.112804   3.388656   4.616661   5.051790
    26  H    1.088301   3.362039   2.138374   2.653136   4.000079
    27  H    3.363684   1.085360   2.154572   2.747629   2.768170
    28  H    2.630607   3.446184   2.158502   1.089897   2.073031
    29  H    4.166903   2.801952   2.798302   2.120555   1.083096
    30  H    6.099852   4.587505   4.739381   3.935351   2.641383
    31  H    6.621608   6.703266   5.821345   4.380397   3.727359
    32  H    8.534983   6.928080   7.170522   6.322618   4.989792
    33  H    9.511789   8.879847   8.420167   7.070138   5.939318
    34  H    9.993585   8.786651   8.714861   7.581136   6.262371
    35  N    3.663023   3.666727   4.203224   5.645993   6.579135
    36  O    4.968767   5.170049   4.197286   2.759978   2.353037
    37  O    7.492152   7.367784   6.601340   5.168216   4.336893
                   11         12         13         14         15
    11  C    0.000000
    12  C    1.482283   0.000000
    13  C    2.534594   1.407059   0.000000
    14  C    2.502646   1.418554   2.424178   0.000000
    15  C    3.805065   2.436260   1.383121   2.803620   0.000000
    16  C    3.790325   2.441074   2.780600   1.402715   2.415624
    17  C    4.289239   2.807436   2.401653   2.416168   1.399175
    18  H    9.926762  11.106649  11.144993  12.393117  12.393582
    19  H    8.958776  10.226793  10.412309  11.455736  11.719928
    20  H    9.765656  10.747889  10.529622  12.116694  11.660346
    21  H    8.884458  10.156681  10.372986  11.359729  11.675755
    22  H    8.529463   9.397087   9.066043  10.795444  10.150213
    23  H    8.649014   9.537946   9.258017  10.904851  10.344074
    24  H    6.992632   8.354514   8.743566   9.489977  10.103321
    25  H    6.519598   7.325007   6.992090   8.721830   8.093553
    26  H    4.881165   6.328926   6.973797   7.323218   8.356632
    27  H    4.206357   4.928240   4.640342   6.327794   5.816248
    28  H    2.571050   4.047505   4.879904   4.968724   6.240886
    29  H    2.212004   2.765817   2.642663   4.169244   3.954849
    30  H    2.767484   2.164723   1.083949   3.414032   2.122638
    31  H    2.292344   2.392925   3.784735   1.870865   4.546771
    32  H    4.675452   3.415254   2.142361   3.888549   1.084965
    33  H    4.638421   3.410889   3.865261   2.136986   3.409635
    34  H    5.375762   3.894050   3.387182   3.397407   2.158026
    35  N    7.985888   9.101286   9.081638  10.419446  10.318512
    36  O    1.243421   2.361209   3.645029   2.799819   4.796565
    37  O    2.871908   2.418737   3.668743   1.335456   4.137655
                   16         17         18         19         20
    16  C    0.000000
    17  C    1.381755   0.000000
    18  H   13.535671  13.533055   0.000000
    19  H   12.666465  12.782394   1.769641   0.000000
    20  H   13.117019  12.908741   2.050806   3.248466   0.000000
    21  H   12.570351  12.709378   1.770888   1.777109   3.305210
    22  H   11.725250  11.435012   3.333707   3.773890   1.764599
    23  H   11.844857  11.591352   3.185565   4.078255   1.771148
    24  H   10.767157  11.036139   3.601046   2.302527   4.662591
    25  H    9.630715   9.353694   4.645971   4.651112   3.576032
    26  H    8.662809   9.109662   5.931788   4.649050   6.618179
    27  H    7.236938   7.019466   6.605033   6.142317   5.901197
    28  H    6.322047   6.853136   7.916295   6.775071   8.173565
    29  H    5.104596   5.017192   8.518466   7.806616   8.013201
    30  H    3.864250   3.375368  10.284602   9.628216   9.564245
    31  H    3.148366   4.285738  11.862717  10.772960  11.897190
    32  H    3.399896   2.164163  12.560188  11.994274  11.658615
    33  H    1.084939   2.159707  14.494352  13.584695  14.138326
    34  H    2.136763   1.086620  14.510215  13.798930  13.809118
    35  N   11.520994  11.473335   2.081088   2.118436   2.088495
    36  O    4.201389   5.010969  10.215334   9.117475  10.293695
    37  O    2.339199   3.609336  12.686250  11.641697  12.618786
                   21         22         23         24         25
    21  H    0.000000
    22  H    4.117336   0.000000
    23  H    3.620947   1.770431   0.000000
    24  H    2.361058   4.599195   4.629749   0.000000
    25  H    4.580137   2.231656   2.376041   4.310274   0.000000
    26  H    4.629829   6.056446   6.120842   2.415279   4.916097
    27  H    6.054165   4.536605   4.664959   4.924613   2.399437
    28  H    6.712968   7.228901   7.316603   4.645236   5.524197
    29  H    7.735103   6.651857   6.796720   6.177586   4.559594
    30  H    9.620565   8.062841   8.297769   8.101137   6.011690
    31  H   10.663242  10.740671  10.812415   8.652555   8.761400
    32  H   11.971332  10.097051  10.323583  10.530290   8.099263
    33  H   13.472557  12.770033  12.869677  11.625652  10.673672
    34  H   13.724755  12.307119  12.466495  12.090040  10.239538
    35  N    2.117760   2.114633   2.124364   2.676006   2.676733
    36  O    9.032967   9.181980   9.271972   7.010414   7.264665
    37  O   11.523988  11.401147  11.473809   9.553477   9.371415
                   26         27         28         29         30
    26  H    0.000000
    27  H    4.272260   0.000000
    28  H    2.360264   3.817849   0.000000
    29  H    4.663883   2.162914   3.054530   0.000000
    30  H    6.547718   3.718400   4.686737   1.959182   0.000000
    31  H    6.313910   6.481884   4.010659   4.482428   4.516862
    32  H    8.959609   5.967954   6.975187   4.377905   2.437729
    33  H    9.444322   8.276112   7.085295   6.131966   4.949006
    34  H   10.190161   7.949484   7.939448   6.016374   4.270123
    35  N    4.531720   4.527098   6.182787   6.466557   8.207745
    36  O    4.698156   5.088000   2.365669   3.310285   3.996475
    37  O    7.246028   7.027449   4.913489   4.929471   4.570535
                   31         32         33         34         35
    31  H    0.000000
    32  H    5.615200   0.000000
    33  H    3.494163   4.311724   0.000000
    34  H    5.241968   2.495340   2.486902   0.000000
    35  N   10.021591  10.479743  12.500684  12.441330   0.000000
    36  O    1.656653   5.751285   4.831554   6.074152   8.389589
    37  O    0.990063   5.222465   2.533167   4.474556  10.798700
                   36         37
    36  O    0.000000
    37  O    2.551701   0.000000
 Symmetry turned off by external request.
 Stoichiometry    C17H17NO2
 Framework group  C1[X(C17H17NO2)]
 Deg. of freedom   105
 Full point group                 C1      NOp   1
 Rotational constants (GHZ):      1.1111716      0.1072095      0.0979928
 Leave Link  202 at Tue Nov  7 15:12:01 2017, MaxMem=  3758096384 cpu:         0.0
 (Enter /share/apps/gaussian/g09_D01/g09/l301.exe)
 Standard basis: 6-31G(d) (6D, 7F)
 Ernie: Thresh=  0.10000D-02 Tol=  0.10000D-05 Strict=F.
   334 basis functions,   628 primitive gaussians,   334 cartesian basis functions
    71 alpha electrons       71 beta electrons
       nuclear repulsion energy      1362.1010515924 Hartrees.
 IExCor= 4639 DFT=T Ex+Corr=wB97XD ExCW=0 ScaHFX=  1.000000
 ScaDFX=  1.000000  1.000000  1.000000  1.000000 ScalE2=  1.000000  1.000000
 IRadAn=      0 IRanWt=     -1 IRanGd=            0 ICorTp=0 IEmpDi=121
  HFx wShort=  0.000000 wLong=  0.200000 cFull=  0.222036 cShort=  0.000000 cLong=  0.777964
  DFx wShort=  0.000000 wLong=  0.200000 cFull=  0.000000 cShort=  0.000000 cLong=  1.000000
 NAtoms=   37 NActive=   37 NUniq=   37 SFac= 1.00D+00 NAtFMM=   60 NAOKFM=F Big=F
 Integral buffers will be    131072 words long.
 Raffenetti 1 integral format.
 Two-electron integral symmetry is turned off.
 R6Disp:  Grimme-D2 Dispersion energy=       -0.0228880462 Hartrees.
 Nuclear repulsion after empirical dispersion term =     1362.0781635462 Hartrees.
 Leave Link  301 at Tue Nov  7 15:12:02 2017, MaxMem=  3758096384 cpu:         0.1
 (Enter /share/apps/gaussian/g09_D01/g09/l302.exe)
 NPDir=0 NMtPBC=     1 NCelOv=     1 NCel=       1 NClECP=     1 NCelD=      1
         NCelK=      1 NCelE2=     1 NClLst=     1 CellRange=     0.0.
 One-electron integrals computed using PRISM.
 NBasis=   334 RedAO= T EigKep=  3.53D-04  NBF=   334
 NBsUse=   334 1.00D-06 EigRej= -1.00D+00 NBFU=   334
 Precomputing XC quadrature grid using
 IXCGrd= 4 IRadAn=           0 IRanWt=          -1 IRanGd=           0 AccXCQ= 0.00D+00.
 Generated NRdTot=       0 NPtTot=           0 NUsed=           0 NTot=          32
 NSgBfM=   326   326   326   326   326 MxSgAt=    37 MxSgA2=    37.
 Leave Link  302 at Tue Nov  7 15:12:02 2017, MaxMem=  3758096384 cpu:         1.8
 (Enter /share/apps/gaussian/g09_D01/g09/l308.exe)
 Leave Link  308 at Tue Nov  7 15:12:02 2017, MaxMem=  3758096384 cpu:         0.2
 (Enter /share/apps/gaussian/g09_D01/g09/l303.exe)
 DipDrv:  MaxL=1.
 Leave Link  303 at Tue Nov  7 15:12:02 2017, MaxMem=  3758096384 cpu:         0.1
 (Enter /share/apps/gaussian/g09_D01/g09/l401.exe)
 ExpMin= 1.61D-01 ExpMax= 5.48D+03 ExpMxC= 8.25D+02 IAcc=1 IRadAn=         1 AccDes= 0.00D+00
 Harris functional with IExCor= 4639 and IRadAn=       1 diagonalized for initial guess.
 HarFok:  IExCor= 4639 AccDes= 0.00D+00 IRadAn=         1 IDoV= 1 UseB2=F ITyADJ=14
 ICtDFT=  3500011 ScaDFX=  1.000000  1.000000  1.000000  1.000000
 FoFCou: FMM=F IPFlag=           0 FMFlag=      100000 FMFlg1=           0
         NFxFlg=           0 DoJE=T BraDBF=F KetDBF=T FulRan=T
         wScrn=  0.000000 ICntrl=     500 IOpCl=  0 I1Cent=   200000004 NGrid=           0
         NMat0=    1 NMatS0=      1 NMatT0=    0 NMatD0=    1 NMtDS0=    0 NMtDT0=    0
 Symmetry not used in FoFCou.
 Harris En= -825.233721487753    
 JPrj=0 DoOrth=F DoCkMO=F.
 Leave Link  401 at Tue Nov  7 15:12:03 2017, MaxMem=  3758096384 cpu:         3.8
 (Enter /share/apps/gaussian/g09_D01/g09/l502.exe)
 Closed shell SCF:
 Using DIIS extrapolation, IDIIS=  1040.
 Two-electron integral symmetry not used.
 Keep R1 ints in memory in canonical form, NReq=3149053790.
 IVT=      357300 IEndB=      357300 NGot=  3758096384 MDV=   627840115
 LenX=   627840115 LenY=   627728118
 Requested convergence on RMS density matrix=1.00D-08 within 128 cycles.
 Requested convergence on MAX density matrix=1.00D-06.
 Requested convergence on             energy=1.00D-06.
 No special actions if energy rises.
 FoFCou: FMM=F IPFlag=           0 FMFlag=           0 FMFlg1=           0
         NFxFlg=           0 DoJE=F BraDBF=F KetDBF=F FulRan=T
         wScrn=  0.000000 ICntrl=     600 IOpCl=  0 I1Cent=           0 NGrid=           0
         NMat0=    1 NMatS0=  55945 NMatT0=    0 NMatD0=    1 NMtDS0=    0 NMtDT0=    0
 Symmetry not used in FoFCou.
 Integral accuracy reduced to 1.0D-05 until final iterations.

 Cycle   1  Pass 0  IDiag  1:
 E= -862.702253375866    
 DIIS: error= 5.01D-02 at cycle   1 NSaved=   1.
 NSaved= 1 IEnMin= 1 EnMin= -862.702253375866     IErMin= 1 ErrMin= 5.01D-02
 ErrMax= 5.01D-02  0.00D+00 EMaxC= 1.00D-01 BMatC= 8.36D-01 BMatP= 8.36D-01
 IDIUse=3 WtCom= 4.99D-01 WtEn= 5.01D-01
 Coeff-Com:  0.100D+01
 Coeff-En:   0.100D+01
 Coeff:      0.100D+01
 Gap=     0.299 Goal=   None    Shift=    0.000
 GapD=    0.299 DampG=1.000 DampE=0.500 DampFc=0.5000 IDamp=-1.
 Damping current iteration by 5.00D-01
 RMSDP=3.02D-03 MaxDP=1.43D-01              OVMax= 1.82D-01

 Cycle   2  Pass 0  IDiag  1:
 E= -862.815988559782     Delta-E=       -0.113735183916 Rises=F Damp=T
 DIIS: error= 2.56D-02 at cycle   2 NSaved=   2.
 NSaved= 2 IEnMin= 2 EnMin= -862.815988559782     IErMin= 2 ErrMin= 2.56D-02
 ErrMax= 2.56D-02  0.00D+00 EMaxC= 1.00D-01 BMatC= 1.76D-01 BMatP= 8.36D-01
 IDIUse=3 WtCom= 7.44D-01 WtEn= 2.56D-01
 Coeff-Com: -0.440D+00 0.144D+01
 Coeff-En:   0.000D+00 0.100D+01
 Coeff:     -0.327D+00 0.133D+01
 Gap=     0.285 Goal=   None    Shift=    0.000
 RMSDP=1.34D-03 MaxDP=4.91D-02 DE=-1.14D-01 OVMax= 1.76D-01

 Cycle   3  Pass 0  IDiag  1:
 E= -862.899426290209     Delta-E=       -0.083437730427 Rises=F Damp=F
 DIIS: error= 1.73D-02 at cycle   3 NSaved=   3.
 NSaved= 3 IEnMin= 3 EnMin= -862.899426290209     IErMin= 3 ErrMin= 1.73D-02
 ErrMax= 1.73D-02  0.00D+00 EMaxC= 1.00D-01 BMatC= 5.82D-02 BMatP= 1.76D-01
 IDIUse=3 WtCom= 8.27D-01 WtEn= 1.73D-01
 Coeff-Com: -0.329D+00 0.680D+00 0.649D+00
 Coeff-En:   0.000D+00 0.000D+00 0.100D+01
 Coeff:     -0.272D+00 0.562D+00 0.710D+00
 Gap=     0.273 Goal=   None    Shift=    0.000
 RMSDP=9.13D-04 MaxDP=5.46D-02 DE=-8.34D-02 OVMax= 8.04D-02

 Cycle   4  Pass 0  IDiag  1:
 E= -862.946612593145     Delta-E=       -0.047186302936 Rises=F Damp=F
 DIIS: error= 4.81D-03 at cycle   4 NSaved=   4.
 NSaved= 4 IEnMin= 4 EnMin= -862.946612593145     IErMin= 4 ErrMin= 4.81D-03
 ErrMax= 4.81D-03  0.00D+00 EMaxC= 1.00D-01 BMatC= 6.14D-03 BMatP= 5.82D-02
 IDIUse=3 WtCom= 9.52D-01 WtEn= 4.81D-02
 Coeff-Com: -0.137D+00 0.278D+00 0.394D+00 0.465D+00
 Coeff-En:   0.000D+00 0.000D+00 0.151D-01 0.985D+00
 Coeff:     -0.130D+00 0.265D+00 0.376D+00 0.490D+00
 Gap=     0.253 Goal=   None    Shift=    0.000
 RMSDP=2.33D-04 MaxDP=1.24D-02 DE=-4.72D-02 OVMax= 1.75D-02

 Cycle   5  Pass 0  IDiag  1:
 E= -862.951751308424     Delta-E=       -0.005138715279 Rises=F Damp=F
 DIIS: error= 6.16D-04 at cycle   5 NSaved=   5.
 NSaved= 5 IEnMin= 5 EnMin= -862.951751308424     IErMin= 5 ErrMin= 6.16D-04
 ErrMax= 6.16D-04  0.00D+00 EMaxC= 1.00D-01 BMatC= 9.30D-05 BMatP= 6.14D-03
 IDIUse=3 WtCom= 9.94D-01 WtEn= 6.16D-03
 Coeff-Com:  0.321D-02-0.779D-02 0.295D-01 0.138D+00 0.837D+00
 Coeff-En:   0.000D+00 0.000D+00 0.000D+00 0.000D+00 0.100D+01
 Coeff:      0.319D-02-0.774D-02 0.294D-01 0.138D+00 0.838D+00
 Gap=     0.253 Goal=   None    Shift=    0.000
 RMSDP=5.74D-05 MaxDP=2.23D-03 DE=-5.14D-03 OVMax= 6.88D-03

 Cycle   6  Pass 0  IDiag  1:
 E= -862.951895149166     Delta-E=       -0.000143840743 Rises=F Damp=F
 DIIS: error= 4.18D-04 at cycle   6 NSaved=   6.
 NSaved= 6 IEnMin= 6 EnMin= -862.951895149166     IErMin= 6 ErrMin= 4.18D-04
 ErrMax= 4.18D-04  0.00D+00 EMaxC= 1.00D-01 BMatC= 2.91D-05 BMatP= 9.30D-05
 IDIUse=3 WtCom= 9.96D-01 WtEn= 4.18D-03
 Coeff-Com:  0.309D-01-0.635D-01-0.695D-01-0.432D-01 0.418D+00 0.727D+00
 Coeff-En:   0.000D+00 0.000D+00 0.000D+00 0.000D+00 0.000D+00 0.100D+01
 Coeff:      0.308D-01-0.633D-01-0.692D-01-0.430D-01 0.416D+00 0.729D+00
 Gap=     0.254 Goal=   None    Shift=    0.000
 RMSDP=2.91D-05 MaxDP=1.31D-03 DE=-1.44D-04 OVMax= 4.78D-03

 Cycle   7  Pass 0  IDiag  1:
 E= -862.951943157139     Delta-E=       -0.000048007973 Rises=F Damp=F
 DIIS: error= 7.57D-05 at cycle   7 NSaved=   7.
 NSaved= 7 IEnMin= 7 EnMin= -862.951943157139     IErMin= 7 ErrMin= 7.57D-05
 ErrMax= 7.57D-05  0.00D+00 EMaxC= 1.00D-01 BMatC= 2.41D-06 BMatP= 2.91D-05
 IDIUse=1 WtCom= 1.00D+00 WtEn= 0.00D+00
 Coeff-Com:  0.765D-02-0.156D-01-0.198D-01-0.227D-01 0.314D-01 0.232D+00
 Coeff-Com:  0.787D+00
 Coeff:      0.765D-02-0.156D-01-0.198D-01-0.227D-01 0.314D-01 0.232D+00
 Coeff:      0.787D+00
 Gap=     0.254 Goal=   None    Shift=    0.000
 RMSDP=1.03D-05 MaxDP=2.53D-04 DE=-4.80D-05 OVMax= 1.50D-03

 Cycle   8  Pass 0  IDiag  1:
 E= -862.951948194541     Delta-E=       -0.000005037402 Rises=F Damp=F
 DIIS: error= 5.53D-05 at cycle   8 NSaved=   8.
 NSaved= 8 IEnMin= 8 EnMin= -862.951948194541     IErMin= 8 ErrMin= 5.53D-05
 ErrMax= 5.53D-05  0.00D+00 EMaxC= 1.00D-01 BMatC= 5.99D-07 BMatP= 2.41D-06
 IDIUse=1 WtCom= 1.00D+00 WtEn= 0.00D+00
 Coeff-Com: -0.323D-02 0.677D-02 0.621D-02-0.133D-02-0.884D-01-0.519D-01
 Coeff-Com:  0.348D+00 0.784D+00
 Coeff:     -0.323D-02 0.677D-02 0.621D-02-0.133D-02-0.884D-01-0.519D-01
 Coeff:      0.348D+00 0.784D+00
 Gap=     0.254 Goal=   None    Shift=    0.000
 RMSDP=5.83D-06 MaxDP=1.58D-04 DE=-5.04D-06 OVMax= 1.08D-03

 Initial convergence to 1.0D-05 achieved.  Increase integral accuracy.
 Cycle   9  Pass 1  IDiag  1:
 E= -862.950980485703     Delta-E=        0.000967708838 Rises=F Damp=F
 DIIS: error= 7.36D-05 at cycle   1 NSaved=   1.
 NSaved= 1 IEnMin= 1 EnMin= -862.950980485703     IErMin= 1 ErrMin= 7.36D-05
 ErrMax= 7.36D-05  0.00D+00 EMaxC= 1.00D-01 BMatC= 4.94D-06 BMatP= 4.94D-06
 IDIUse=1 WtCom= 1.00D+00 WtEn= 0.00D+00
 Coeff-Com:  0.100D+01
 Coeff:      0.100D+01
 Gap=     0.254 Goal=   None    Shift=    0.000
 RMSDP=5.83D-06 MaxDP=1.58D-04 DE= 9.68D-04 OVMax= 2.61D-04

 Cycle  10  Pass 1  IDiag  1:
 E= -862.950984351353     Delta-E=       -0.000003865650 Rises=F Damp=F
 DIIS: error= 1.51D-05 at cycle   2 NSaved=   2.
 NSaved= 2 IEnMin= 2 EnMin= -862.950984351353     IErMin= 2 ErrMin= 1.51D-05
 ErrMax= 1.51D-05  0.00D+00 EMaxC= 1.00D-01 BMatC= 1.37D-07 BMatP= 4.94D-06
 IDIUse=1 WtCom= 1.00D+00 WtEn= 0.00D+00
 Coeff-Com: -0.322D-01 0.103D+01
 Coeff:     -0.322D-01 0.103D+01
 Gap=     0.254 Goal=   None    Shift=    0.000
 RMSDP=2.36D-06 MaxDP=7.86D-05 DE=-3.87D-06 OVMax= 2.29D-04

 Cycle  11  Pass 1  IDiag  1:
 E= -862.950984415632     Delta-E=       -0.000000064279 Rises=F Damp=F
 DIIS: error= 2.12D-05 at cycle   3 NSaved=   3.
 NSaved= 3 IEnMin= 3 EnMin= -862.950984415632     IErMin= 2 ErrMin= 1.51D-05
 ErrMax= 2.12D-05  0.00D+00 EMaxC= 1.00D-01 BMatC= 1.53D-07 BMatP= 1.37D-07
 IDIUse=1 WtCom= 1.00D+00 WtEn= 0.00D+00
 Coeff-Com: -0.413D-01 0.550D+00 0.491D+00
 Coeff:     -0.413D-01 0.550D+00 0.491D+00
 Gap=     0.254 Goal=   None    Shift=    0.000
 RMSDP=1.24D-06 MaxDP=4.97D-05 DE=-6.43D-08 OVMax= 7.92D-05

 Cycle  12  Pass 1  IDiag  1:
 E= -862.950984548422     Delta-E=       -0.000000132790 Rises=F Damp=F
 DIIS: error= 5.14D-06 at cycle   4 NSaved=   4.
 NSaved= 4 IEnMin= 4 EnMin= -862.950984548422     IErMin= 4 ErrMin= 5.14D-06
 ErrMax= 5.14D-06  0.00D+00 EMaxC= 1.00D-01 BMatC= 4.44D-09 BMatP= 1.37D-07
 IDIUse=1 WtCom= 1.00D+00 WtEn= 0.00D+00
 Coeff-Com: -0.627D-02 0.687D-02 0.117D+00 0.883D+00
 Coeff:     -0.627D-02 0.687D-02 0.117D+00 0.883D+00
 Gap=     0.254 Goal=   None    Shift=    0.000
 RMSDP=3.85D-07 MaxDP=1.68D-05 DE=-1.33D-07 OVMax= 5.25D-05

 Cycle  13  Pass 1  IDiag  1:
 E= -862.950984556280     Delta-E=       -0.000000007858 Rises=F Damp=F
 DIIS: error= 1.70D-06 at cycle   5 NSaved=   5.
 NSaved= 5 IEnMin= 5 EnMin= -862.950984556280     IErMin= 5 ErrMin= 1.70D-06
 ErrMax= 1.70D-06  0.00D+00 EMaxC= 1.00D-01 BMatC= 1.40D-09 BMatP= 4.44D-09
 IDIUse=1 WtCom= 1.00D+00 WtEn= 0.00D+00
 Coeff-Com:  0.187D-02-0.578D-01-0.701D-02 0.407D+00 0.655D+00
 Coeff:      0.187D-02-0.578D-01-0.701D-02 0.407D+00 0.655D+00
 Gap=     0.254 Goal=   None    Shift=    0.000
 RMSDP=1.85D-07 MaxDP=6.35D-06 DE=-7.86D-09 OVMax= 2.49D-05

 Cycle  14  Pass 1  IDiag  1:
 E= -862.950984558353     Delta-E=       -0.000000002073 Rises=F Damp=F
 DIIS: error= 8.75D-07 at cycle   6 NSaved=   6.
 NSaved= 6 IEnMin= 6 EnMin= -862.950984558353     IErMin= 6 ErrMin= 8.75D-07
 ErrMax= 8.75D-07  0.00D+00 EMaxC= 1.00D-01 BMatC= 2.04D-10 BMatP= 1.40D-09
 IDIUse=1 WtCom= 1.00D+00 WtEn= 0.00D+00
 Coeff-Com:  0.215D-02-0.252D-01-0.314D-01-0.186D-01 0.233D+00 0.840D+00
 Coeff:      0.215D-02-0.252D-01-0.314D-01-0.186D-01 0.233D+00 0.840D+00
 Gap=     0.254 Goal=   None    Shift=    0.000
 RMSDP=1.09D-07 MaxDP=3.09D-06 DE=-2.07D-09 OVMax= 1.64D-05

 Cycle  15  Pass 1  IDiag  1:
 E= -862.950984558962     Delta-E=       -0.000000000608 Rises=F Damp=F
 DIIS: error= 3.85D-07 at cycle   7 NSaved=   7.
 NSaved= 7 IEnMin= 7 EnMin= -862.950984558962     IErMin= 7 ErrMin= 3.85D-07
 ErrMax= 3.85D-07  0.00D+00 EMaxC= 1.00D-01 BMatC= 4.07D-11 BMatP= 2.04D-10
 IDIUse=1 WtCom= 1.00D+00 WtEn= 0.00D+00
 Coeff-Com:  0.492D-03 0.159D-02-0.115D-01-0.834D-01-0.517D-01 0.307D+00
 Coeff-Com:  0.838D+00
 Coeff:      0.492D-03 0.159D-02-0.115D-01-0.834D-01-0.517D-01 0.307D+00
 Coeff:      0.838D+00
 Gap=     0.254 Goal=   None    Shift=    0.000
 RMSDP=5.75D-08 MaxDP=1.51D-06 DE=-6.08D-10 OVMax= 1.03D-05

 Cycle  16  Pass 1  IDiag  1:
 E= -862.950984559111     Delta-E=       -0.000000000149 Rises=F Damp=F
 DIIS: error= 1.16D-07 at cycle   8 NSaved=   8.
 NSaved= 8 IEnMin= 8 EnMin= -862.950984559111     IErMin= 8 ErrMin= 1.16D-07
 ErrMax= 1.16D-07  0.00D+00 EMaxC= 1.00D-01 BMatC= 6.71D-12 BMatP= 4.07D-11
 IDIUse=1 WtCom= 1.00D+00 WtEn= 0.00D+00
 Coeff-Com: -0.257D-03 0.525D-02 0.243D-02-0.195D-01-0.638D-01-0.813D-01
 Coeff-Com:  0.267D+00 0.890D+00
 Coeff:     -0.257D-03 0.525D-02 0.243D-02-0.195D-01-0.638D-01-0.813D-01
 Coeff:      0.267D+00 0.890D+00
 Gap=     0.254 Goal=   None    Shift=    0.000
 RMSDP=2.40D-08 MaxDP=4.75D-07 DE=-1.49D-10 OVMax= 3.95D-06

 Cycle  17  Pass 1  IDiag  1:
 E= -862.950984559083     Delta-E=        0.000000000028 Rises=F Damp=F
 DIIS: error= 3.96D-08 at cycle   9 NSaved=   9.
 NSaved= 9 IEnMin= 8 EnMin= -862.950984559111     IErMin= 9 ErrMin= 3.96D-08
 ErrMax= 3.96D-08  0.00D+00 EMaxC= 1.00D-01 BMatC= 5.98D-13 BMatP= 6.71D-12
 IDIUse=1 WtCom= 1.00D+00 WtEn= 0.00D+00
 Coeff-Com: -0.129D-03 0.142D-02 0.198D-02 0.315D-02-0.135D-01-0.596D-01
 Coeff-Com: -0.101D-01 0.247D+00 0.830D+00
 Coeff:     -0.129D-03 0.142D-02 0.198D-02 0.315D-02-0.135D-01-0.596D-01
 Coeff:     -0.101D-01 0.247D+00 0.830D+00
 Gap=     0.254 Goal=   None    Shift=    0.000
 RMSDP=6.62D-09 MaxDP=1.40D-07 DE= 2.82D-11 OVMax= 9.42D-07

 SCF Done:  E(RwB97XD) =  -862.950984559     A.U. after   17 cycles
            NFock= 17  Conv=0.66D-08     -V/T= 2.0091
 KE= 8.551632740798D+02 PE=-4.729416865880D+03 EE= 1.649224443695D+03
 Leave Link  502 at Tue Nov  7 15:13:21 2017, MaxMem=  3758096384 cpu:       205.8
 (Enter /share/apps/gaussian/g09_D01/g09/l801.exe)
 DoSCS=F DFT=T ScalE2(SS,OS)=  1.000000  1.000000
 ExpMin= 1.61D-01 ExpMax= 5.48D+03 ExpMxC= 8.25D+02 IAcc=3 IRadAn=         5 AccDes= 0.00D+00
 HarFok:  IExCor=  205 AccDes= 0.00D+00 IRadAn=         5 IDoV=-2 UseB2=F ITyADJ=14
 ICtDFT= 12500011 ScaDFX=  1.000000  1.000000  1.000000  1.000000
 Largest valence mixing into a core orbital is  7.27D-05
 Largest core mixing into a valence orbital is  1.51D-05
 Range of M.O.s used for correlation:    21   334
 NBasis=   334 NAE=    71 NBE=    71 NFC=    20 NFV=     0
 NROrb=    314 NOA=    51 NOB=    51 NVA=   263 NVB=   263
 Leave Link  801 at Tue Nov  7 15:13:22 2017, MaxMem=  3758096384 cpu:         1.2
 (Enter /share/apps/gaussian/g09_D01/g09/l914.exe)
 RHF ground state
 MDV=  3758096384 DFT=T DoStab=F Mixed=T DoRPA=T DoScal=F NonHer=T
 Would need an additional          5672200000 words for in-memory AO integral storage.
 Making orbital integer symmetry assigments:
    16 initial guesses have been made.
 Convergence on wavefunction:    0.001000000000000
 Davidson Disk Diagonalization:  ConvIn= 1.00D-03 SkipCon=T Conv= 1.00D-03.
 Max sub-space:   200 roots to seek:    16 dimension of matrix:        26826
 Iteration     1 Dimension    16 NMult     0 NNew     16
 CISAX will form    16 AO SS matrices at one time.
 NMat=    16 NSing=    16 JSym2X= 0.
 FoFJK:  IHMeth= 1 ICntrl=       0 DoSepK=T KAlg= 0 I1Cent=   0 FoldK=F
 IRaf=         1 NMat=  32 IRICut=       1 DoRegI=T DoRafI=F ISym2E= 0.
 FoFCou: FMM=F IPFlag=           0 FMFlag=      100000 FMFlg1=           0
         NFxFlg=           0 DoJE=F BraDBF=F KetDBF=F FulRan=T
         wScrn=  0.000000 ICntrl=     500 IOpCl=  0 I1Cent=           0 NGrid=           0
         NMat0=   16 NMatS0=     16 NMatT0=    0 NMatD0=   16 NMtDS0=    0 NMtDT0=    0
 Symmetry not used in FoFCou.
 New state      2 was old state      5
 New state      3 was old state      2
 New state      4 was old state      7
 Excitation Energies [eV] at current iteration:
 Root      1 :     4.136435066241454
 Root      2 :     4.319334151778690
 Root      3 :     4.805210177992952
 Root      4 :     5.133558127996486
 Root      5 :     5.826269024237698
 Root      6 :     6.200076540387523
 Root      7 :     6.400293454184221
 Root      8 :     6.473244405142415
 Root      9 :     6.649709768518813
 Root     10 :     6.907862783721952
 Root     11 :     7.195419002970000
 Root     12 :     7.410587239174154
 Root     13 :     7.832445909997592
 Root     14 :     7.921891691027995
 Root     15 :     8.232280970537492
 Root     16 :     8.300962105182938
 Iteration     2 Dimension    24 NMult    16 NNew      8
 CISAX will form     8 AO SS matrices at one time.
 NMat=     8 NSing=     8 JSym2X= 0.
 Root      1 not converged, maximum delta is    0.058114865051130
 Root      2 not converged, maximum delta is    0.118794115775670
 Root      3 not converged, maximum delta is    0.121926786691258
 Root      4 not converged, maximum delta is    0.073609632375790
 Excitation Energies [eV] at current iteration:
 Root      1 :     3.751019365280135   Change is   -0.385415700961319
 Root      2 :     3.970488675391109   Change is   -0.348845476387581
 Root      3 :     4.273822567356764   Change is   -0.531387610636188
 Root      4 :     4.825737833490061   Change is   -0.307820294506426
 Iteration     3 Dimension    32 NMult    24 NNew      8
 CISAX will form     8 AO SS matrices at one time.
 NMat=     8 NSing=     8 JSym2X= 0.
 Root      1 not converged, maximum delta is    0.014630066945752
 Root      2 not converged, maximum delta is    0.011798980536454
 Root      3 not converged, maximum delta is    0.042136839013381
 Root      4 not converged, maximum delta is    0.036702117139241
 Excitation Energies [eV] at current iteration:
 Root      1 :     3.722181906699429   Change is   -0.028837458580707
 Root      2 :     3.953560968344546   Change is   -0.016927707046563
 Root      3 :     4.222875703520898   Change is   -0.050946863835867
 Root      4 :     4.787981559935667   Change is   -0.037756273554393
 Iteration     4 Dimension    40 NMult    32 NNew      8
 CISAX will form     8 AO SS matrices at one time.
 NMat=     8 NSing=     8 JSym2X= 0.
 Root      1 not converged, maximum delta is    0.008085513630604
 Root      2 not converged, maximum delta is    0.002856269161387
 Root      3 not converged, maximum delta is    0.017054730480129
 Root      4 not converged, maximum delta is    0.004443735067728
 Excitation Energies [eV] at current iteration:
 Root      1 :     3.718570579528983   Change is   -0.003611327170446
 Root      2 :     3.951960025146140   Change is   -0.001600943198406
 Root      3 :     4.214533678011327   Change is   -0.008342025509571
 Root      4 :     4.785855771990113   Change is   -0.002125787945554
 Iteration     5 Dimension    48 NMult    40 NNew      8
 CISAX will form     8 AO SS matrices at one time.
 NMat=     8 NSing=     8 JSym2X= 0.
 Root      1 not converged, maximum delta is    0.001959660616678
 Root      2 has converged.
 Root      3 not converged, maximum delta is    0.002993815745559
 Root      4 not converged, maximum delta is    0.001546097525499
 Excitation Energies [eV] at current iteration:
 Root      1 :     3.718277250449530   Change is   -0.000293329079453
 Root      2 :     3.951850544040470   Change is   -0.000109481105670
 Root      3 :     4.213619830812109   Change is   -0.000913847199217
 Root      4 :     4.785690132984925   Change is   -0.000165639005188
 Iteration     6 Dimension    54 NMult    48 NNew      6
 CISAX will form     6 AO SS matrices at one time.
 NMat=     6 NSing=     6 JSym2X= 0.
 Root      1 has converged.
 Root      2 has converged.
 Root      3 has converged.
 Root      4 has converged.
 Excitation Energies [eV] at current iteration:
 Root      1 :     3.718251405727668   Change is   -0.000025844721862
 Root      2 :     3.951849517345943   Change is   -0.000001026694528
 Root      3 :     4.213544153580888   Change is   -0.000075677231221
 Root      4 :     4.785673807674462   Change is   -0.000016325310463
 Convergence achieved on expansion vectors.
 ***********************************************************************
 Excited states from <AA,BB:AA,BB> singles matrix:
 ***********************************************************************
 
 1PDM for each excited state written to RWF  633
 Ground to excited state transition densities written to RWF  633
 Ground to excited state transition electric dipole moments (Au):
       state          X           Y           Z        Dip. S.      Osc.
         1         3.3955      1.1824      0.2347     12.9821      1.1826
         2        -0.2024     -0.0915     -0.0260      0.0500      0.0048
         3         0.3479     -0.0069      0.0527      0.1239      0.0128
         4        -0.1411     -0.4383     -0.1312      0.2293      0.0269
 Ground to excited state transition velocity dipole moments (Au):
       state          X           Y           Z        Dip. S.      Osc.
         1        -0.4567     -0.1550     -0.0300      0.2335      1.1390
         2         0.0288      0.0114      0.0045      0.0010      0.0045
         3        -0.0475     -0.0025     -0.0105      0.0024      0.0102
         4         0.0174      0.0839      0.0248      0.0080      0.0302
 Ground to excited state transition magnetic dipole moments (Au):
       state          X           Y           Z
         1        -0.1343     -0.2072      2.7210
         2         0.2866     -0.4357     -0.3990
         3         0.1272     -0.5231      1.2649
         4         0.0697      0.1667     -0.6299
 Ground to excited state transition velocity quadrupole moments (Au):
       state          XX          YY          ZZ          XY          XZ          YZ
         1         4.3496     -0.7342      0.0182     -0.3860      0.2678      0.0204
         2        -0.3721      0.0322      0.0039     -0.0292     -0.0435      0.0079
         3        -1.9472     -0.1149      0.0223     -0.8066      0.0255      0.0098
         4        -0.2978      0.8171      0.0096      0.0845      0.0126      0.1250
 <0|del|b> * <b|rxdel|0> + <0|del|b> * <b|delr+rdel|0>
 Rotatory Strengths (R) in cgs (10**-40 erg-esu-cm/Gauss)
       state          XX          YY          ZZ    R(velocity)    E-M Angle
         1         9.3378   -106.4835    158.4952     20.4498       89.49
         2       -15.5597     16.6059      6.2785      2.4416       85.80
         3        -7.9087    -64.7022     -9.9029    -27.5046      105.65
         4        -1.1606    -28.7920     28.3314     -0.5404       90.40
 1/2[<0|r|b>*<b|rxdel|0> + (<0|rxdel|b>*<b|r|0>)*]
 Rotatory Strengths (R) in cgs (10**-40 erg-esu-cm/Gauss)
       state          XX          YY          ZZ     R(length)
         1       322.5623    173.2646   -451.6114     14.7385
         2        41.0234    -28.1899     -7.3255      1.8360
         3       -31.2890     -2.5456    -47.1245    -26.9864
         4         6.9544     51.6737    -58.4367      0.0638
  1/2[<0|del|b>*<b|r|0> + (<0|r|b>*<b|del|0>)*] (Au)
       state          X           Y           Z        Dip. S.   Osc.(frdel)
         1        -1.5505     -0.1833     -0.0070      1.7409      1.1606
         2        -0.0058     -0.0010     -0.0001      0.0070      0.0047
         3        -0.0165      0.0000     -0.0006      0.0171      0.0114
         4        -0.0025     -0.0368     -0.0033      0.0425      0.0283

 Excitation energies and oscillator strengths:
 
 Excited state symmetry could not be determined.
 Excited State   1:      Singlet-?Sym    3.7183 eV  333.45 nm  f=1.1826  <S**2>=0.000
      66 -> 72        -0.10974
      70 -> 72        -0.18285
      70 -> 73         0.11706
      71 -> 72         0.64190
 This state for optimization and/or second-order correction.
 Total Energy, E(TD-HF/TD-KS) =  -862.814341328    
 Copying the excited state density for this state as the 1-particle RhoCI density.
 
 Excited state symmetry could not be determined.
 Excited State   2:      Singlet-?Sym    3.9518 eV  313.74 nm  f=0.0048  <S**2>=0.000
      68 -> 72         0.65661
      68 -> 73        -0.11542
      68 -> 76        -0.13000
      69 -> 72         0.11078
 
 Excited state symmetry could not be determined.
 Excited State   3:      Singlet-?Sym    4.2135 eV  294.25 nm  f=0.0128  <S**2>=0.000
      69 -> 75        -0.11091
      70 -> 72         0.62078
      70 -> 73        -0.21139
      71 -> 72         0.18406
      71 -> 73         0.11111
 
 Excited state symmetry could not be determined.
 Excited State   4:      Singlet-?Sym    4.7857 eV  259.07 nm  f=0.0269  <S**2>=0.000
      67 -> 72        -0.29587
      67 -> 73        -0.16539
      71 -> 73         0.14744
      71 -> 74         0.58107
 SavETr:  write IOETrn=   770 NScale= 10 NData=  16 NLR=1 NState=    4 LETran=      82.
 Leave Link  914 at Tue Nov  7 15:15:58 2017, MaxMem=  3758096384 cpu:       626.9
 (Enter /share/apps/gaussian/g09_D01/g09/l601.exe)
 Copying SCF densities to generalized density rwf, IOpCl= 0 IROHF=0.

 **********************************************************************

            Population analysis using the SCF density.

 **********************************************************************

 Alpha  occ. eigenvalues --  -19.27543 -19.25408 -14.48674 -10.38717 -10.36319
 Alpha  occ. eigenvalues --  -10.35325 -10.34081 -10.34077 -10.31645 -10.30834
 Alpha  occ. eigenvalues --  -10.30768 -10.30652 -10.30618 -10.30289 -10.30078
 Alpha  occ. eigenvalues --  -10.30074 -10.29826 -10.29498 -10.29283 -10.29037
 Alpha  occ. eigenvalues --   -1.15639  -1.12316  -1.06856  -0.96425  -0.95047
 Alpha  occ. eigenvalues --   -0.90018  -0.86412  -0.86032  -0.84127  -0.83228
 Alpha  occ. eigenvalues --   -0.83186  -0.78152  -0.73885  -0.71343  -0.70617
 Alpha  occ. eigenvalues --   -0.68831  -0.67188  -0.63863  -0.62504  -0.60668
 Alpha  occ. eigenvalues --   -0.59768  -0.57958  -0.56923  -0.56744  -0.54814
 Alpha  occ. eigenvalues --   -0.54474  -0.53407  -0.52027  -0.51465  -0.51064
 Alpha  occ. eigenvalues --   -0.50767  -0.50541  -0.50348  -0.49367  -0.47560
 Alpha  occ. eigenvalues --   -0.47423  -0.46365  -0.46251  -0.46013  -0.44939
 Alpha  occ. eigenvalues --   -0.44582  -0.41923  -0.41554  -0.41315  -0.40272
 Alpha  occ. eigenvalues --   -0.34098  -0.33639  -0.33251  -0.32731  -0.28779
 Alpha  occ. eigenvalues --   -0.26031
 Alpha virt. eigenvalues --   -0.00669   0.05467   0.07035   0.08839   0.12172
 Alpha virt. eigenvalues --    0.15579   0.16678   0.17714   0.17967   0.19183
 Alpha virt. eigenvalues --    0.19348   0.20357   0.22806   0.23491   0.23993
 Alpha virt. eigenvalues --    0.24366   0.24474   0.25138   0.25207   0.26159
 Alpha virt. eigenvalues --    0.26831   0.27186   0.28017   0.28321   0.29528
 Alpha virt. eigenvalues --    0.32168   0.32609   0.32999   0.33699   0.35216
 Alpha virt. eigenvalues --    0.37832   0.38537   0.40817   0.41282   0.41720
 Alpha virt. eigenvalues --    0.42556   0.43400   0.45238   0.48225   0.48995
 Alpha virt. eigenvalues --    0.52312   0.53184   0.56487   0.56680   0.59079
 Alpha virt. eigenvalues --    0.59438   0.60135   0.60722   0.61106   0.61531
 Alpha virt. eigenvalues --    0.62983   0.63537   0.64052   0.64661   0.65779
 Alpha virt. eigenvalues --    0.66482   0.66739   0.66939   0.67109   0.68136
 Alpha virt. eigenvalues --    0.68548   0.68814   0.69636   0.69838   0.70356
 Alpha virt. eigenvalues --    0.70520   0.71715   0.72079   0.72680   0.73083
 Alpha virt. eigenvalues --    0.74105   0.75954   0.76764   0.77528   0.79150
 Alpha virt. eigenvalues --    0.79618   0.81655   0.82435   0.82728   0.83172
 Alpha virt. eigenvalues --    0.87062   0.87665   0.88094   0.89237   0.90503
 Alpha virt. eigenvalues --    0.90990   0.91828   0.92387   0.93565   0.94289
 Alpha virt. eigenvalues --    0.94744   0.95263   0.95585   0.96182   0.98210
 Alpha virt. eigenvalues --    0.98948   0.99538   1.01049   1.01487   1.02825
 Alpha virt. eigenvalues --    1.03711   1.03875   1.04560   1.05831   1.06389
 Alpha virt. eigenvalues --    1.07882   1.08111   1.08592   1.09424   1.11019
 Alpha virt. eigenvalues --    1.11509   1.11953   1.14036   1.14931   1.15876
 Alpha virt. eigenvalues --    1.17879   1.19470   1.21121   1.21771   1.26146
 Alpha virt. eigenvalues --    1.26591   1.27792   1.28386   1.30998   1.32513
 Alpha virt. eigenvalues --    1.32947   1.33971   1.35869   1.37318   1.38552
 Alpha virt. eigenvalues --    1.39090   1.40731   1.42264   1.44025   1.45615
 Alpha virt. eigenvalues --    1.46985   1.48322   1.49478   1.49849   1.52134
 Alpha virt. eigenvalues --    1.53223   1.53417   1.54227   1.56316   1.56806
 Alpha virt. eigenvalues --    1.57235   1.58489   1.59277   1.59788   1.61556
 Alpha virt. eigenvalues --    1.65737   1.67189   1.69214   1.73558   1.79642
 Alpha virt. eigenvalues --    1.81684   1.82268   1.85518   1.86010   1.86541
 Alpha virt. eigenvalues --    1.87904   1.88878   1.89703   1.90367   1.92355
 Alpha virt. eigenvalues --    1.93876   1.94567   1.95418   1.99017   1.99728
 Alpha virt. eigenvalues --    2.00387   2.00935   2.02432   2.04050   2.04182
 Alpha virt. eigenvalues --    2.06726   2.07923   2.08067   2.09162   2.10108
 Alpha virt. eigenvalues --    2.12152   2.12639   2.15192   2.16978   2.18499
 Alpha virt. eigenvalues --    2.19324   2.19822   2.20898   2.22544   2.23359
 Alpha virt. eigenvalues --    2.23726   2.25665   2.27747   2.30216   2.31609
 Alpha virt. eigenvalues --    2.32191   2.32746   2.35154   2.36692   2.38084
 Alpha virt. eigenvalues --    2.38821   2.40032   2.40425   2.41647   2.42069
 Alpha virt. eigenvalues --    2.46508   2.47910   2.48866   2.51529   2.56967
 Alpha virt. eigenvalues --    2.57747   2.59560   2.62056   2.62923   2.64008
 Alpha virt. eigenvalues --    2.66300   2.68353   2.68637   2.70461   2.71403
 Alpha virt. eigenvalues --    2.72243   2.76152   2.78154   2.78749   2.79647
 Alpha virt. eigenvalues --    2.81406   2.83292   2.87689   2.91578   2.93160
 Alpha virt. eigenvalues --    2.95383   2.99686   3.01096   3.02834   3.06530
 Alpha virt. eigenvalues --    3.06951   3.13567   3.18609   3.24909   3.33881
 Alpha virt. eigenvalues --    3.38920   3.53707   3.56241   4.09009   4.12872
 Alpha virt. eigenvalues --    4.13240   4.19957   4.20178   4.22242   4.23518
 Alpha virt. eigenvalues --    4.24106   4.31278   4.33964   4.36090   4.40134
 Alpha virt. eigenvalues --    4.43365   4.45300   4.48562   4.54119   4.61229
 Alpha virt. eigenvalues --    4.78591   4.86932   4.89308
          Condensed to atoms (all electrons):
               1          2          3          4          5          6
     1  C    5.008025  -0.056400  -0.040444  -0.008295   0.005023  -0.000022
     2  C   -0.056400   5.009149  -0.041352   0.005065  -0.008332  -0.000093
     3  C   -0.040444  -0.041352   4.422506   0.539934   0.529629  -0.015712
     4  C   -0.008295   0.005065   0.539934   5.047949  -0.050218   0.509066
     5  C    0.005023  -0.008332   0.529629  -0.050218   5.034465  -0.050884
     6  C   -0.000022  -0.000093  -0.015712   0.509066  -0.050884   4.992747
     7  C   -0.000088   0.000019  -0.017381  -0.046673   0.531357  -0.050929
     8  C    0.000002   0.000003  -0.023771  -0.031812  -0.029856   0.532850
     9  C    0.000000   0.000000   0.000311   0.007645   0.007322  -0.041829
    10  C    0.000000   0.000000   0.000019  -0.000280   0.000115   0.006729
    11  C    0.000000   0.000000   0.000000   0.000001  -0.000004  -0.000237
    12  C    0.000000   0.000000   0.000000   0.000000   0.000000  -0.000001
    13  C    0.000000   0.000000   0.000000   0.000000   0.000000   0.000000
    14  C    0.000000   0.000000   0.000000   0.000000   0.000000   0.000000
    15  C    0.000000   0.000000   0.000000   0.000000   0.000000   0.000000
    16  C    0.000000   0.000000   0.000000   0.000000   0.000000   0.000000
    17  C    0.000000   0.000000   0.000000   0.000000   0.000000   0.000000
    18  H    0.384538  -0.007010   0.003154   0.000425  -0.000108  -0.000003
    19  H    0.380937   0.002981  -0.003695   0.002767  -0.000091   0.000103
    20  H   -0.007108   0.384220   0.003116  -0.000109   0.000456   0.000002
    21  H    0.379556   0.002808  -0.002980   0.004119   0.000039   0.000044
    22  H    0.003288   0.380212  -0.004594  -0.000047   0.003410  -0.000001
    23  H    0.002453   0.380268  -0.002527  -0.000001   0.003023  -0.000002
    24  H    0.007541  -0.000064  -0.035698   0.360506   0.004655  -0.031669
    25  H   -0.000069   0.007702  -0.035880   0.004634   0.361379   0.000538
    26  H   -0.000006   0.000002   0.002788  -0.036649   0.000542   0.362831
    27  H    0.000002  -0.000007   0.003000   0.000397  -0.040288   0.005893
    28  H    0.000000   0.000000  -0.000008   0.000339  -0.000103  -0.005659
    29  H    0.000000   0.000000  -0.000009   0.000011   0.000190   0.000085
    30  H    0.000000   0.000000   0.000000   0.000000   0.000000   0.000000
    31  H    0.000000   0.000000   0.000000   0.000000   0.000000   0.000000
    32  H    0.000000   0.000000   0.000000   0.000000   0.000000   0.000000
    33  H    0.000000   0.000000   0.000000   0.000000   0.000000   0.000000
    34  H    0.000000   0.000000   0.000000   0.000000   0.000000   0.000000
    35  N    0.302767   0.303622   0.336010  -0.076466  -0.074402   0.005375
    36  O    0.000000   0.000000   0.000000   0.000000   0.000000  -0.000036
    37  O    0.000000   0.000000   0.000000   0.000000   0.000000   0.000000
               7          8          9         10         11         12
     1  C   -0.000088   0.000002   0.000000   0.000000   0.000000   0.000000
     2  C    0.000019   0.000003   0.000000   0.000000   0.000000   0.000000
     3  C   -0.017381  -0.023771   0.000311   0.000019   0.000000   0.000000
     4  C   -0.046673  -0.031812   0.007645  -0.000280   0.000001   0.000000
     5  C    0.531357  -0.029856   0.007322   0.000115  -0.000004   0.000000
     6  C   -0.050929   0.532850  -0.041829   0.006729  -0.000237  -0.000001
     7  C    4.965482   0.543695  -0.058590  -0.012624   0.000430   0.000003
     8  C    0.543695   4.647579   0.372010  -0.031257   0.003110  -0.000051
     9  C   -0.058590   0.372010   5.044955   0.517296  -0.004584   0.010341
    10  C   -0.012624  -0.031257   0.517296   5.285617   0.371106  -0.099139
    11  C    0.000430   0.003110  -0.004584   0.371106   4.502702   0.333844
    12  C    0.000003  -0.000051   0.010341  -0.099139   0.333844   5.153565
    13  C    0.000005  -0.000017   0.000248  -0.003539  -0.048051   0.493553
    14  C    0.000000   0.000000  -0.000209   0.006574  -0.036098   0.439201
    15  C    0.000000   0.000000  -0.000012   0.000316   0.004772  -0.026272
    16  C    0.000000   0.000000   0.000000  -0.000158   0.005056  -0.059947
    17  C    0.000000   0.000000   0.000001  -0.000011   0.000115  -0.028549
    18  H    0.000002   0.000000   0.000000   0.000000   0.000000   0.000000
    19  H    0.000001  -0.000006   0.000000   0.000000   0.000000   0.000000
    20  H   -0.000003   0.000000   0.000000   0.000000   0.000000   0.000000
    21  H   -0.000005  -0.000006   0.000000   0.000000   0.000000   0.000000
    22  H    0.000210  -0.000011   0.000000   0.000000   0.000000   0.000000
    23  H    0.000017  -0.000003   0.000000   0.000000   0.000000   0.000000
    24  H    0.000517   0.002486  -0.000169   0.000002   0.000000   0.000000
    25  H   -0.033468   0.002612  -0.000181   0.000004   0.000000   0.000000
    26  H    0.005281  -0.040205  -0.005865   0.000222  -0.000002   0.000000
    27  H    0.358550  -0.033130  -0.011837   0.005265   0.000107   0.000014
    28  H    0.004879  -0.041303   0.367280  -0.057786  -0.007386   0.001118
    29  H    0.003641  -0.008734  -0.042476   0.356304  -0.028693  -0.007305
    30  H    0.000001  -0.000027   0.000427   0.003466  -0.009281  -0.035193
    31  H    0.000000  -0.000002  -0.000070   0.002082  -0.004127  -0.015767
    32  H    0.000000   0.000000   0.000000   0.000012  -0.000115   0.002612
    33  H    0.000000   0.000000   0.000000   0.000002  -0.000094   0.005714
    34  H    0.000000   0.000000   0.000000   0.000000   0.000004   0.000428
    35  N    0.005398   0.000358   0.000000   0.000000   0.000000   0.000000
    36  O    0.000006   0.001301   0.002573  -0.105511   0.488864  -0.078676
    37  O    0.000000   0.000000   0.000015  -0.000144  -0.003642  -0.063765
              13         14         15         16         17         18
     1  C    0.000000   0.000000   0.000000   0.000000   0.000000   0.384538
     2  C    0.000000   0.000000   0.000000   0.000000   0.000000  -0.007010
     3  C    0.000000   0.000000   0.000000   0.000000   0.000000   0.003154
     4  C    0.000000   0.000000   0.000000   0.000000   0.000000   0.000425
     5  C    0.000000   0.000000   0.000000   0.000000   0.000000  -0.000108
     6  C    0.000000   0.000000   0.000000   0.000000   0.000000  -0.000003
     7  C    0.000005   0.000000   0.000000   0.000000   0.000000   0.000002
     8  C   -0.000017   0.000000   0.000000   0.000000   0.000000   0.000000
     9  C    0.000248  -0.000209  -0.000012   0.000000   0.000001   0.000000
    10  C   -0.003539   0.006574   0.000316  -0.000158  -0.000011   0.000000
    11  C   -0.048051  -0.036098   0.004772   0.005056   0.000115   0.000000
    12  C    0.493553   0.439201  -0.026272  -0.059947  -0.028549   0.000000
    13  C    4.983992  -0.035897   0.543585  -0.036425  -0.038505   0.000000
    14  C   -0.035897   4.534348  -0.034897   0.526628  -0.021460   0.000000
    15  C    0.543585  -0.034897   4.904876  -0.038997   0.535412   0.000000
    16  C   -0.036425   0.526628  -0.038997   4.992464   0.549083   0.000000
    17  C   -0.038505  -0.021460   0.535412   0.549083   4.859624   0.000000
    18  H    0.000000   0.000000   0.000000   0.000000   0.000000   0.515290
    19  H    0.000000   0.000000   0.000000   0.000000   0.000000  -0.026236
    20  H    0.000000   0.000000   0.000000   0.000000   0.000000   0.004953
    21  H    0.000000   0.000000   0.000000   0.000000   0.000000  -0.025359
    22  H    0.000000   0.000000   0.000000   0.000000   0.000000   0.000212
    23  H    0.000000   0.000000   0.000000   0.000000   0.000000   0.000280
    24  H    0.000000   0.000000   0.000000   0.000000   0.000000   0.000112
    25  H    0.000000   0.000000   0.000000   0.000000   0.000000  -0.000003
    26  H    0.000000   0.000000   0.000000   0.000000   0.000000   0.000000
    27  H   -0.000023   0.000000   0.000000   0.000000   0.000000   0.000000
    28  H   -0.000021  -0.000007   0.000000   0.000000   0.000000   0.000000
    29  H    0.002951  -0.000119   0.000514   0.000003  -0.000007   0.000000
    30  H    0.360561   0.002762  -0.037567   0.000398   0.004135   0.000000
    31  H    0.000015  -0.020302   0.000002   0.004680  -0.000167   0.000000
    32  H   -0.034310   0.000637   0.370630   0.003420  -0.036669   0.000000
    33  H    0.000209  -0.029920   0.003796   0.358046  -0.037872   0.000000
    34  H    0.004127   0.003356  -0.037725  -0.035484   0.368144   0.000000
    35  N    0.000000   0.000000   0.000000   0.000000   0.000000  -0.031502
    36  O    0.003979  -0.000781  -0.000031   0.000556  -0.000015   0.000000
    37  O    0.004034   0.341350   0.000068  -0.061261   0.003207   0.000000
              19         20         21         22         23         24
     1  C    0.380937  -0.007108   0.379556   0.003288   0.002453   0.007541
     2  C    0.002981   0.384220   0.002808   0.380212   0.380268  -0.000064
     3  C   -0.003695   0.003116  -0.002980  -0.004594  -0.002527  -0.035698
     4  C    0.002767  -0.000109   0.004119  -0.000047  -0.000001   0.360506
     5  C   -0.000091   0.000456   0.000039   0.003410   0.003023   0.004655
     6  C    0.000103   0.000002   0.000044  -0.000001  -0.000002  -0.031669
     7  C    0.000001  -0.000003  -0.000005   0.000210   0.000017   0.000517
     8  C   -0.000006   0.000000  -0.000006  -0.000011  -0.000003   0.002486
     9  C    0.000000   0.000000   0.000000   0.000000   0.000000  -0.000169
    10  C    0.000000   0.000000   0.000000   0.000000   0.000000   0.000002
    11  C    0.000000   0.000000   0.000000   0.000000   0.000000   0.000000
    12  C    0.000000   0.000000   0.000000   0.000000   0.000000   0.000000
    13  C    0.000000   0.000000   0.000000   0.000000   0.000000   0.000000
    14  C    0.000000   0.000000   0.000000   0.000000   0.000000   0.000000
    15  C    0.000000   0.000000   0.000000   0.000000   0.000000   0.000000
    16  C    0.000000   0.000000   0.000000   0.000000   0.000000   0.000000
    17  C    0.000000   0.000000   0.000000   0.000000   0.000000   0.000000
    18  H   -0.026236   0.004953  -0.025359   0.000212   0.000280   0.000112
    19  H    0.551417   0.000421  -0.045326   0.000294  -0.000352   0.000076
    20  H    0.000421   0.515071   0.000061  -0.024018  -0.028059  -0.000003
    21  H   -0.045326   0.000061   0.551634  -0.000321   0.000621  -0.000172
    22  H    0.000294  -0.024018  -0.000321   0.547975  -0.046198  -0.000001
    23  H   -0.000352  -0.028059   0.000621  -0.046198   0.558530  -0.000001
    24  H    0.000076  -0.000003  -0.000172  -0.000001  -0.000001   0.544701
    25  H   -0.000002   0.000126   0.000001  -0.000293   0.000103  -0.000137
    26  H   -0.000001   0.000000  -0.000001   0.000000   0.000000  -0.004748
    27  H    0.000000   0.000000   0.000000  -0.000002  -0.000002   0.000016
    28  H    0.000000   0.000000   0.000000   0.000000   0.000000  -0.000010
    29  H    0.000000   0.000000   0.000000   0.000000   0.000000   0.000000
    30  H    0.000000   0.000000   0.000000   0.000000   0.000000   0.000000
    31  H    0.000000   0.000000   0.000000   0.000000   0.000000   0.000000
    32  H    0.000000   0.000000   0.000000   0.000000   0.000000   0.000000
    33  H    0.000000   0.000000   0.000000   0.000000   0.000000   0.000000
    34  H    0.000000   0.000000   0.000000   0.000000   0.000000   0.000000
    35  N   -0.045180  -0.031146  -0.046547  -0.043116  -0.047760  -0.010847
    36  O    0.000000   0.000000   0.000000   0.000000   0.000000   0.000000
    37  O    0.000000   0.000000   0.000000   0.000000   0.000000   0.000000
              25         26         27         28         29         30
     1  C   -0.000069  -0.000006   0.000002   0.000000   0.000000   0.000000
     2  C    0.007702   0.000002  -0.000007   0.000000   0.000000   0.000000
     3  C   -0.035880   0.002788   0.003000  -0.000008  -0.000009   0.000000
     4  C    0.004634  -0.036649   0.000397   0.000339   0.000011   0.000000
     5  C    0.361379   0.000542  -0.040288  -0.000103   0.000190   0.000000
     6  C    0.000538   0.362831   0.005893  -0.005659   0.000085   0.000000
     7  C   -0.033468   0.005281   0.358550   0.004879   0.003641   0.000001
     8  C    0.002612  -0.040205  -0.033130  -0.041303  -0.008734  -0.000027
     9  C   -0.000181  -0.005865  -0.011837   0.367280  -0.042476   0.000427
    10  C    0.000004   0.000222   0.005265  -0.057786   0.356304   0.003466
    11  C    0.000000  -0.000002   0.000107  -0.007386  -0.028693  -0.009281
    12  C    0.000000   0.000000   0.000014   0.001118  -0.007305  -0.035193
    13  C    0.000000   0.000000  -0.000023  -0.000021   0.002951   0.360561
    14  C    0.000000   0.000000   0.000000  -0.000007  -0.000119   0.002762
    15  C    0.000000   0.000000   0.000000   0.000000   0.000514  -0.037567
    16  C    0.000000   0.000000   0.000000   0.000000   0.000003   0.000398
    17  C    0.000000   0.000000   0.000000   0.000000  -0.000007   0.004135
    18  H   -0.000003   0.000000   0.000000   0.000000   0.000000   0.000000
    19  H   -0.000002  -0.000001   0.000000   0.000000   0.000000   0.000000
    20  H    0.000126   0.000000   0.000000   0.000000   0.000000   0.000000
    21  H    0.000001  -0.000001   0.000000   0.000000   0.000000   0.000000
    22  H   -0.000293   0.000000  -0.000002   0.000000   0.000000   0.000000
    23  H    0.000103   0.000000  -0.000002   0.000000   0.000000   0.000000
    24  H   -0.000137  -0.004748   0.000016  -0.000010   0.000000   0.000000
    25  H    0.547361   0.000016  -0.004925   0.000002   0.000004   0.000000
    26  H    0.000016   0.538299  -0.000163   0.005601   0.000006   0.000000
    27  H   -0.004925  -0.000163   0.550634  -0.000037   0.003705  -0.000006
    28  H    0.000002   0.005601  -0.000037   0.510931   0.004648  -0.000002
    29  H    0.000004   0.000006   0.003705   0.004648   0.548335   0.004247
    30  H    0.000000   0.000000  -0.000006  -0.000002   0.004247   0.542090
    31  H    0.000000   0.000000   0.000000  -0.000068  -0.000051  -0.000002
    32  H    0.000000   0.000000   0.000000   0.000000  -0.000004  -0.004112
    33  H    0.000000   0.000000   0.000000   0.000000   0.000000   0.000013
    34  H    0.000000   0.000000   0.000000   0.000000   0.000000  -0.000167
    35  N   -0.010947  -0.000103  -0.000103   0.000000   0.000000   0.000000
    36  O    0.000000  -0.000005   0.000002   0.018563   0.002425  -0.000001
    37  O    0.000000   0.000000   0.000000   0.000009   0.000003  -0.000040
              31         32         33         34         35         36
     1  C    0.000000   0.000000   0.000000   0.000000   0.302767   0.000000
     2  C    0.000000   0.000000   0.000000   0.000000   0.303622   0.000000
     3  C    0.000000   0.000000   0.000000   0.000000   0.336010   0.000000
     4  C    0.000000   0.000000   0.000000   0.000000  -0.076466   0.000000
     5  C    0.000000   0.000000   0.000000   0.000000  -0.074402   0.000000
     6  C    0.000000   0.000000   0.000000   0.000000   0.005375  -0.000036
     7  C    0.000000   0.000000   0.000000   0.000000   0.005398   0.000006
     8  C   -0.000002   0.000000   0.000000   0.000000   0.000358   0.001301
     9  C   -0.000070   0.000000   0.000000   0.000000   0.000000   0.002573
    10  C    0.002082   0.000012   0.000002   0.000000   0.000000  -0.105511
    11  C   -0.004127  -0.000115  -0.000094   0.000004   0.000000   0.488864
    12  C   -0.015767   0.002612   0.005714   0.000428   0.000000  -0.078676
    13  C    0.000015  -0.034310   0.000209   0.004127   0.000000   0.003979
    14  C   -0.020302   0.000637  -0.029920   0.003356   0.000000  -0.000781
    15  C    0.000002   0.370630   0.003796  -0.037725   0.000000  -0.000031
    16  C    0.004680   0.003420   0.358046  -0.035484   0.000000   0.000556
    17  C   -0.000167  -0.036669  -0.037872   0.368144   0.000000  -0.000015
    18  H    0.000000   0.000000   0.000000   0.000000  -0.031502   0.000000
    19  H    0.000000   0.000000   0.000000   0.000000  -0.045180   0.000000
    20  H    0.000000   0.000000   0.000000   0.000000  -0.031146   0.000000
    21  H    0.000000   0.000000   0.000000   0.000000  -0.046547   0.000000
    22  H    0.000000   0.000000   0.000000   0.000000  -0.043116   0.000000
    23  H    0.000000   0.000000   0.000000   0.000000  -0.047760   0.000000
    24  H    0.000000   0.000000   0.000000   0.000000  -0.010847   0.000000
    25  H    0.000000   0.000000   0.000000   0.000000  -0.010947   0.000000
    26  H    0.000000   0.000000   0.000000   0.000000  -0.000103  -0.000005
    27  H    0.000000   0.000000   0.000000   0.000000  -0.000103   0.000002
    28  H   -0.000068   0.000000   0.000000   0.000000   0.000000   0.018563
    29  H   -0.000051  -0.000004   0.000000   0.000000   0.000000   0.002425
    30  H   -0.000002  -0.004112   0.000013  -0.000167   0.000000  -0.000001
    31  H    0.275420   0.000000   0.000013   0.000003   0.000000   0.078055
    32  H    0.000000   0.537709  -0.000122  -0.003756   0.000000   0.000000
    33  H    0.000013  -0.000122   0.523071  -0.004582   0.000000   0.000010
    34  H    0.000003  -0.003756  -0.004582   0.533637   0.000000   0.000000
    35  N    0.000000   0.000000   0.000000   0.000000   6.966046   0.000000
    36  O    0.078055   0.000000   0.000010   0.000000   0.000000   8.209641
    37  O    0.214332   0.000002   0.000239  -0.000058   0.000000  -0.043360
              37
     1  C    0.000000
     2  C    0.000000
     3  C    0.000000
     4  C    0.000000
     5  C    0.000000
     6  C    0.000000
     7  C    0.000000
     8  C    0.000000
     9  C    0.000015
    10  C   -0.000144
    11  C   -0.003642
    12  C   -0.063765
    13  C    0.004034
    14  C    0.341350
    15  C    0.000068
    16  C   -0.061261
    17  C    0.003207
    18  H    0.000000
    19  H    0.000000
    20  H    0.000000
    21  H    0.000000
    22  H    0.000000
    23  H    0.000000
    24  H    0.000000
    25  H    0.000000
    26  H    0.000000
    27  H    0.000000
    28  H    0.000009
    29  H    0.000003
    30  H   -0.000040
    31  H    0.214332
    32  H    0.000002
    33  H    0.000239
    34  H   -0.000058
    35  N    0.000000
    36  O   -0.043360
    37  O    8.273531
 Mulliken charges:
               1
     1  C   -0.361700
     2  C   -0.362794
     3  C    0.383583
     4  C   -0.232308
     5  C   -0.227320
     6  C   -0.219186
     7  C   -0.199734
     8  C    0.134186
     9  C   -0.164601
    10  C   -0.244682
    11  C    0.432202
    12  C   -0.025730
    13  C   -0.200472
    14  C    0.324833
    15  C   -0.188470
    16  C   -0.208064
    17  C   -0.156465
    18  H    0.181253
    19  H    0.181894
    20  H    0.182019
    21  H    0.181836
    22  H    0.183003
    23  H    0.179610
    24  H    0.162907
    25  H    0.161423
    26  H    0.172159
    27  H    0.162939
    28  H    0.199017
    29  H    0.160327
    30  H    0.168298
    31  H    0.465956
    32  H    0.164066
    33  H    0.181479
    34  H    0.172072
    35  N   -0.501456
    36  O   -0.577557
    37  O   -0.664522
 Sum of Mulliken charges =   0.00000
 Mulliken charges with hydrogens summed into heavy atoms:
               1
     1  C    0.183283
     2  C    0.181838
     3  C    0.383583
     4  C   -0.069401
     5  C   -0.065897
     6  C   -0.047028
     7  C   -0.036796
     8  C    0.134186
     9  C    0.034416
    10  C   -0.084355
    11  C    0.432202
    12  C   -0.025730
    13  C   -0.032174
    14  C    0.324833
    15  C   -0.024404
    16  C   -0.026585
    17  C    0.015607
    35  N   -0.501456
    36  O   -0.577557
    37  O   -0.198567
 Electronic spatial extent (au):  <R**2>=          15662.1687
 Charge=              0.0000 electrons
 Dipole moment (field-independent basis, Debye):
    X=              7.6570    Y=             -0.4415    Z=             -0.7278  Tot=              7.7042
 Quadrupole moment (field-independent basis, Debye-Ang):
   XX=           -139.8600   YY=           -104.1026   ZZ=           -119.7929
   XY=             25.9505   XZ=              5.4454   YZ=              5.2130
 Traceless Quadrupole moment (field-independent basis, Debye-Ang):
   XX=            -18.6081   YY=             17.1492   ZZ=              1.4589
   XY=             25.9505   XZ=              5.4454   YZ=              5.2130
 Octapole moment (field-independent basis, Debye-Ang**2):
  XXX=           1290.6303  YYY=           -446.1799  ZZZ=             55.7947  XYY=            360.1443
  XXY=           -264.5705  XXZ=            -17.3055  XZZ=            342.2082  YZZ=           -175.1953
  YYZ=             26.3761  XYZ=             -9.7034
 Hexadecapole moment (field-independent basis, Debye-Ang**3):
 XXXX=         -18127.4556 YYYY=          -3692.8994 ZZZZ=           -389.6739 XXXY=            758.1376
 XXXZ=           -238.1260 YYYX=           -253.5885 YYYZ=           -165.4061 ZZZX=           -564.0783
 ZZZY=           -283.8364 XXYY=          -3278.8924 XXZZ=          -2918.3312 YYZZ=           -745.9371
 XXYZ=              9.0197 YYXZ=           -101.5415 ZZXY=           -147.1451
 N-N= 1.362078163546D+03 E-N=-4.729416863497D+03  KE= 8.551632740798D+02
 Leave Link  601 at Tue Nov  7 15:15:58 2017, MaxMem=  3758096384 cpu:         0.2
 (Enter /share/apps/gaussian/g09_D01/g09/l9999.exe)
 1\1\GINC-NXN37\SP\RwB97XD TD-FC\6-31G(d)\C17H17N1O2\BTX008\07-Nov-2017
 \0\\#p wb97xd 6-31G* td=(nstates=4) nosymm\\Title\\0,1\C,0,3.119895,4.
 304495,0.587922\C,0,3.406013,1.979423,-0.22134\C,0,1.165935,2.894648,0
 .136516\C,0,0.290447,3.938217,0.475065\C,0,0.581023,1.654217,-0.202979
 \C,0,-1.066732,3.738921,0.484685\C,0,-0.774037,1.480777,-0.174791\C,0,
 -1.649761,2.517031,0.168822\C,0,-3.087013,2.382061,0.162825\C,0,-3.811
 624,1.296094,-0.171378\C,0,-5.277783,1.344474,-0.076607\C,0,-6.088691,
 0.168613,-0.472766\C,0,-5.525972,-0.9727,-1.073238\C,0,-7.487544,0.180
 725,-0.237483\C,0,-6.296545,-2.071552,-1.40755\C,0,-8.261195,-0.939906
 ,-0.574023\C,0,-7.671399,-2.049445,-1.148749\H,0,4.205103,4.211846,0.5
 50813\H,0,2.831137,5.152918,-0.047709\H,0,4.436029,2.335403,-0.243819\
 H,0,2.834573,4.544216,1.621898\H,0,3.171852,1.580818,-1.216582\H,0,3.3
 50334,1.143709,0.489732\H,0,0.678515,4.916768,0.734648\H,0,1.207627,0.
 816194,-0.483465\H,0,-1.712274,4.574028,0.74977\H,0,-1.172529,0.513299
 ,-0.463228\H,0,-3.653405,3.260315,0.472253\H,0,-3.331162,0.381302,-0.4
 96044\H,0,-4.464161,-1.006755,-1.288511\H,0,-7.433968,1.921655,0.44547
 3\H,0,-5.834113,-2.937725,-1.869124\H,0,-9.326835,-0.898598,-0.374528\
 H,0,-8.285993,-2.907716,-1.406407\N,0,2.517329,3.06617,0.138779\O,0,-5
 .839978,2.364554,0.358673\O,0,-8.121704,1.22351,0.304626\\Version=ES64
 L-G09RevD.01\HF=-862.9509846\RMSD=6.624e-09\PG=C01 [X(C17H17N1O2)]\\@


 Just remember, when you're over the hill, you begin to pick up speed.
 -- Charles Schulz
 Job cpu time:       0 days  0 hours 14 minutes  2.2 seconds.
 File lengths (MBytes):  RWF=    231 Int=      0 D2E=      0 Chk=     52 Scr=      1
 Normal termination of Gaussian 09 at Tue Nov  7 15:15:59 2017.
