 Entering Gaussian System, Link 0=g09
 Input=H1_HP_Mon.com
 Output=H1_HP_Mon.out
 Initial command:
 /share/apps/gaussian/g09_D01/g09/l1.exe "/tmp/135104.1.all.q/Gau-18533.inp" -scrdir="/tmp/135104.1.all.q/"
 Entering Link 1 = /share/apps/gaussian/g09_D01/g09/l1.exe PID=     18547.
  
 Copyright (c) 1988,1990,1992,1993,1995,1998,2003,2009,2013,
            Gaussian, Inc.  All Rights Reserved.
  
 This is part of the Gaussian(R) 09 program.  It is based on
 the Gaussian(R) 03 system (copyright 2003, Gaussian, Inc.),
 the Gaussian(R) 98 system (copyright 1998, Gaussian, Inc.),
 the Gaussian(R) 94 system (copyright 1995, Gaussian, Inc.),
 the Gaussian 92(TM) system (copyright 1992, Gaussian, Inc.),
 the Gaussian 90(TM) system (copyright 1990, Gaussian, Inc.),
 the Gaussian 88(TM) system (copyright 1988, Gaussian, Inc.),
 the Gaussian 86(TM) system (copyright 1986, Carnegie Mellon
 University), and the Gaussian 82(TM) system (copyright 1983,
 Carnegie Mellon University). Gaussian is a federally registered
 trademark of Gaussian, Inc.
  
 This software contains proprietary and confidential information,
 including trade secrets, belonging to Gaussian, Inc.
  
 This software is provided under written license and may be
 used, copied, transmitted, or stored only in accord with that
 written license.
  
 The following legend is applicable only to US Government
 contracts under FAR:
  
                    RESTRICTED RIGHTS LEGEND
  
 Use, reproduction and disclosure by the US Government is
 subject to restrictions as set forth in subparagraphs (a)
 and (c) of the Commercial Computer Software - Restricted
 Rights clause in FAR 52.227-19.
  
 Gaussian, Inc.
 340 Quinnipiac St., Bldg. 40, Wallingford CT 06492
  
  
 ---------------------------------------------------------------
 Warning -- This program may not be used in any manner that
 competes with the business of Gaussian, Inc. or will provide
 assistance to any competitor of Gaussian, Inc.  The licensee
 of this program is prohibited from giving any competitor of
 Gaussian, Inc. access to this program.  By using this program,
 the user acknowledges that Gaussian, Inc. is engaged in the
 business of creating and licensing software in the field of
 computational chemistry and represents and warrants to the
 licensee that it is not a competitor of Gaussian, Inc. and that
 it will not use this program in any manner prohibited above.
 ---------------------------------------------------------------
  

 Cite this work as:
 Gaussian 09, Revision D.01,
 M. J. Frisch, G. W. Trucks, H. B. Schlegel, G. E. Scuseria, 
 M. A. Robb, J. R. Cheeseman, G. Scalmani, V. Barone, B. Mennucci, 
 G. A. Petersson, H. Nakatsuji, M. Caricato, X. Li, H. P. Hratchian, 
 A. F. Izmaylov, J. Bloino, G. Zheng, J. L. Sonnenberg, M. Hada, 
 M. Ehara, K. Toyota, R. Fukuda, J. Hasegawa, M. Ishida, T. Nakajima, 
 Y. Honda, O. Kitao, H. Nakai, T. Vreven, J. A. Montgomery, Jr., 
 J. E. Peralta, F. Ogliaro, M. Bearpark, J. J. Heyd, E. Brothers, 
 K. N. Kudin, V. N. Staroverov, T. Keith, R. Kobayashi, J. Normand, 
 K. Raghavachari, A. Rendell, J. C. Burant, S. S. Iyengar, J. Tomasi, 
 M. Cossi, N. Rega, J. M. Millam, M. Klene, J. E. Knox, J. B. Cross, 
 V. Bakken, C. Adamo, J. Jaramillo, R. Gomperts, R. E. Stratmann, 
 O. Yazyev, A. J. Austin, R. Cammi, C. Pomelli, J. W. Ochterski, 
 R. L. Martin, K. Morokuma, V. G. Zakrzewski, G. A. Voth, 
 P. Salvador, J. J. Dannenberg, S. Dapprich, A. D. Daniels, 
 O. Farkas, J. B. Foresman, J. V. Ortiz, J. Cioslowski, 
 and D. J. Fox, Gaussian, Inc., Wallingford CT, 2013.
 
 ******************************************
 Gaussian 09:  ES64L-G09RevD.01 24-Apr-2013
                18-Sep-2017 
 ******************************************
 %chk=HP_Mon_H_1.chk
 %mem=2GB
 %nproc=4
 Will use up to    4 processors via shared memory.
 ------------------------------------------------
 # wb97xd 6-311++g** td=(root=1,nstates=1) nosymm
 ------------------------------------------------
 1/38=1/1;
 2/12=2,15=1,17=6,18=5,40=1/2;
 3/5=4,6=6,7=1111,11=9,16=1,25=1,30=1,74=-58/1,2,8,3;
 4//1;
 5/5=2,38=5/2;
 8/6=1,10=2,107=1,108=1/1;
 9/8=1,41=1,42=1,70=2/14;
 6/7=2,8=2,9=2,10=2/1;
 99/5=1,9=1/99;
 ---------------------
 Monomer Excitation H1
 ---------------------
 Symbolic Z-matrix:
 Charge =  0 Multiplicity = 1
 H                     3.24981   1.25505   1.14964 
 C                     3.15691   0.16746   1.08048 
 H                     3.01856  -0.09784   0.03193 
 H                     4.07935  -0.29597   1.44396 
 N                     2.02213  -0.30057   1.85645 
 C                     0.97109  -0.88403   1.28055 
 C                     2.01476  -0.0179    3.27858 
 C                    -0.18186  -1.28117   1.90317 
 H                     1.05624  -1.06234   0.21247 
 H                     1.81964  -0.93223   3.84854 
 H                     2.98794   0.37406   3.57111 
 H                     1.24816   0.72496   3.52758 
 C                    -1.17214  -1.99476   1.14509 
 H                    -0.33594  -1.1056    2.95648 
 C                    -2.46543  -2.36438   1.78754 
 O                    -0.97716  -2.33063  -0.04286 
 C                    -3.29807  -3.32122   1.16379 
 C                    -2.90371  -1.79233   2.99065 
 H                    -2.15111  -3.4528   -0.30506 
 C                    -4.49896  -3.70417   1.77159 
 O                    -2.98361  -3.89092  -0.00586 
 C                    -4.10196  -2.15419   3.57639 
 H                    -2.29929  -1.03002   3.4667 
 C                    -4.89498  -3.12459   2.96113 
 H                    -5.10651  -4.4523    1.27512 
 H                    -4.42172  -1.68732   4.50011 
 H                    -5.83521  -3.42183   3.41302 
 
                          Input orientation:                          
 ---------------------------------------------------------------------
 Center     Atomic      Atomic             Coordinates (Angstroms)
 Number     Number       Type             X           Y           Z
 ---------------------------------------------------------------------
      1          1           0        3.249809    1.255049    1.149636
      2          6           0        3.156912    0.167462    1.080475
      3          1           0        3.018558   -0.097841    0.031927
      4          1           0        4.079346   -0.295969    1.443957
      5          7           0        2.022127   -0.300574    1.856453
      6          6           0        0.971087   -0.884025    1.280550
      7          6           0        2.014763   -0.017902    3.278582
      8          6           0       -0.181857   -1.281173    1.903170
      9          1           0        1.056240   -1.062342    0.212470
     10          1           0        1.819639   -0.932225    3.848537
     11          1           0        2.987944    0.374064    3.571110
     12          1           0        1.248162    0.724955    3.527576
     13          6           0       -1.172143   -1.994760    1.145085
     14          1           0       -0.335935   -1.105601    2.956483
     15          6           0       -2.465425   -2.364375    1.787541
     16          8           0       -0.977156   -2.330632   -0.042860
     17          6           0       -3.298074   -3.321217    1.163794
     18          6           0       -2.903713   -1.792329    2.990652
     19          1           0       -2.151107   -3.452800   -0.305064
     20          6           0       -4.498958   -3.704170    1.771591
     21          8           0       -2.983612   -3.890922   -0.005857
     22          6           0       -4.101957   -2.154185    3.576386
     23          1           0       -2.299292   -1.030018    3.466700
     24          6           0       -4.894978   -3.124585    2.961132
     25          1           0       -5.106508   -4.452301    1.275116
     26          1           0       -4.421720   -1.687315    4.500109
     27          1           0       -5.835213   -3.421827    3.413024
 ---------------------------------------------------------------------
                    Distance matrix (angstroms):
                    1          2          3          4          5
     1  H    0.000000
     2  C    1.093736   0.000000
     3  H    1.770046   1.090404   0.000000
     4  H    1.783371   1.094428   1.777176   0.000000
     5  N    2.103986   1.452218   2.088749   2.098172   0.000000
     6  C    3.128154   2.433821   2.523744   3.167615   1.332953
     7  C    2.770948   2.484057   3.399230   2.775909   1.449968
     8  C    4.333194   3.731320   3.891591   4.397653   2.412738
     9  H    3.325707   2.584313   2.193980   3.353067   2.053268
    10  H    3.756810   3.264932   4.086577   3.360521   2.099615
    11  H    2.590028   2.504895   3.570637   2.482918   2.080382
    12  H    3.153124   3.153162   4.003855   3.660513   2.107933
    13  C    5.487708   4.839431   4.732800   5.527509   3.685061
    14  H    4.657781   4.164142   4.563029   4.736871   2.723709
    15  C    6.794928   6.206514   6.188168   6.872436   4.939853
    16  O    5.669778   4.959120   4.577847   5.649663   4.089526
    17  C    7.988566   7.337893   7.181303   7.978530   6.156996
    18  C    7.109268   6.649867   6.833640   7.307152   5.270260
    19  H    7.310943   6.572753   6.172094   7.200222   5.659025
    20  C    9.220850   8.606946   8.517340   9.236367   7.356373
    21  O    8.165275   7.440204   7.100348   8.056738   6.435544
    22  C    8.459341   8.019401   8.215441   8.656439   6.625590
    23  H    6.432949   6.074388   6.398918   6.731815   4.669009
    24  C    9.423389   8.899853   8.964679   9.531074   7.552595
    25  H   10.120159   9.469119   9.301803  10.083825   8.269959
    26  H    8.873304   8.518788   8.823198   9.140242   7.101770
    27  H   10.465836   9.959021  10.043404  10.580486   8.596681
                    6          7          8          9         10
     6  C    0.000000
     7  C    2.414862   0.000000
     8  C    1.369183   2.883184   0.000000
     9  H    1.086206   3.377967   2.106950   0.000000
    10  H    2.704981   1.094947   2.812864   3.717619   0.000000
    11  H    3.301085   1.089170   3.945817   4.132216   1.774343
    12  H    2.777537   1.096135   2.950966   3.771100   1.782091
    13  C    2.417751   4.314643   1.436860   2.589375   4.169939
    14  H    2.136856   2.610099   1.078904   3.077276   2.339299
    15  C    3.775989   5.272687   2.530095   4.071641   4.965937
    16  O    2.764007   5.033118   2.349659   2.410073   4.992051
    17  C    4.917242   6.603821   3.797271   4.996757   6.253488
    18  C    4.331690   5.236688   2.975298   4.892076   4.877069
    19  H    4.342911   6.480395   3.670178   4.033510   6.274753
    20  C    6.173794   7.634668   4.952332   6.345891   7.205696
    21  O    5.131853   7.125418   4.278435   4.936490   6.832383
    22  C    5.711387   6.485881   4.350745   6.254202   6.052483
    23  H    3.936489   4.435182   2.644095   4.674468   4.137748
    24  C    6.500399   7.582663   5.170199   6.872044   7.118989
    25  H    7.047679   8.624979   5.890899   7.113403   8.184433
    26  H    6.331919   6.760723   4.988535   6.984446   6.320543
    27  H    7.570575   8.557272   6.230770   7.956308   8.061299
                   11         12         13         14         15
    11  H    0.000000
    12  H    1.775348   0.000000
    13  C    5.366866   4.350976   0.000000
    14  H    3.689898   2.487257   2.184264   0.000000
    15  C    6.357625   5.134434   1.490618   2.735994   0.000000
    16  O    6.008176   5.199679   1.249817   3.302715   2.359333
    17  C    7.678821   6.528954   2.505877   4.110591   1.413475
    18  C    6.304111   4.884984   2.538785   2.658241   1.402430
    19  H    7.488622   6.610431   2.277539   4.409295   2.379593
    20  C    8.713436   7.465254   3.792399   5.048494   2.435274
    21  O    8.163595   7.190228   2.863829   4.852181   2.411460
    22  C    7.527202   6.075821   3.810571   3.958122   2.433595
    23  H    5.471491   3.958291   2.755193   2.029977   2.151205
    24  C    8.645986   7.271725   4.293487   4.986100   2.803206
    25  H    9.699770   8.500552   4.640651   6.065127   3.405486
    26  H    7.746963   6.237983   4.680861   4.406224   3.412261
    27  H    9.606346   8.208722   5.378131   5.984596   3.887913
                   16         17         18         19         20
    16  O    0.000000
    17  C    2.797129   0.000000
    18  C    3.633674   2.414628   0.000000
    19  H    1.645045   1.868259   3.766341   0.000000
    20  C    4.193081   1.399354   2.772373   3.144533   0.000000
    21  O    2.541995   1.338482   3.659172   0.987188   2.343175
    22  C    4.784815   2.797998   1.381960   4.534079   2.411918
    23  H    3.969465   3.398608   1.083081   4.485313   3.855258
    24  C    5.000366   2.412300   2.396020   4.278386   1.381216
    25  H    4.825981   2.135925   3.856270   3.497194   1.084115
    26  H    5.737373   3.881136   2.143323   5.600206   3.393889
    27  H    6.060904   3.392084   3.380437   5.234288   2.135321
                   21         22         23         24         25
    21  O    0.000000
    22  C    4.135144   0.000000
    23  H    4.551013   2.127295   0.000000
    24  C    3.611595   1.396100   3.373484   0.000000
    25  H    2.542189   3.403866   4.939182   2.156438   0.000000
    26  H    5.218023   1.083273   2.450444   2.158279   4.302867
    27  H    4.476653   2.153550   4.269235   1.084712   2.482647
                   26         27
    26  H    0.000000
    27  H    2.487619   0.000000
 Symmetry turned off by external request.
 Stoichiometry    C11H13NO2
 Framework group  C1[X(C11H13NO2)]
 Deg. of freedom    75
 Full point group                 C1      NOp   1
 Rotational constants (GHZ):      1.6064841      0.3223532      0.2716634
 Standard basis: 6-311++G(d,p) (5D, 7F)
   399 basis functions,   621 primitive gaussians,   413 cartesian basis functions
    51 alpha electrons       51 beta electrons
       nuclear repulsion energy       838.3763305197 Hartrees.
 NAtoms=   27 NActive=   27 NUniq=   27 SFac= 1.00D+00 NAtFMM=   60 NAOKFM=F Big=F
 Integral buffers will be    131072 words long.
 Raffenetti 1 integral format.
 Two-electron integral symmetry is turned off.
 Nuclear repulsion after empirical dispersion term =      838.3613349374 Hartrees.
 One-electron integrals computed using PRISM.
 NBasis=   399 RedAO= T EigKep=  1.81D-06  NBF=   399
 NBsUse=   397 1.00D-06 EigRej=  7.13D-07 NBFU=   397
 ExpMin= 3.60D-02 ExpMax= 8.59D+03 ExpMxC= 1.30D+03 IAcc=3 IRadAn=         5 AccDes= 0.00D+00
 Harris functional with IExCor= 4639 and IRadAn=       5 diagonalized for initial guess.
 HarFok:  IExCor= 4639 AccDes= 0.00D+00 IRadAn=         5 IDoV= 1 UseB2=F ITyADJ=14
 ICtDFT=  3500011 ScaDFX=  1.000000  1.000000  1.000000  1.000000
 FoFCou: FMM=F IPFlag=           0 FMFlag=      100000 FMFlg1=           0
         NFxFlg=           0 DoJE=T BraDBF=F KetDBF=T FulRan=T
         wScrn=  0.000000 ICntrl=     500 IOpCl=  0 I1Cent=   200000004 NGrid=           0
         NMat0=    1 NMatS0=      1 NMatT0=    0 NMatD0=    1 NMtDS0=    0 NMtDT0=    0
 Symmetry not used in FoFCou.
 Requested convergence on RMS density matrix=1.00D-08 within 128 cycles.
 Requested convergence on MAX density matrix=1.00D-06.
 Requested convergence on             energy=1.00D-06.
 No special actions if energy rises.
 SCF Done:  E(RwB97XD) =  -632.151790799     A.U. after   17 cycles
            NFock= 17  Conv=0.66D-08     -V/T= 2.0040
 DoSCS=F DFT=T ScalE2(SS,OS)=  1.000000  1.000000
 ExpMin= 3.60D-02 ExpMax= 8.59D+03 ExpMxC= 1.30D+03 IAcc=3 IRadAn=         5 AccDes= 0.00D+00
 HarFok:  IExCor=  205 AccDes= 0.00D+00 IRadAn=         5 IDoV=-2 UseB2=F ITyADJ=14
 ICtDFT= 12500011 ScaDFX=  1.000000  1.000000  1.000000  1.000000
 Range of M.O.s used for correlation:    15   397
 NBasis=   399 NAE=    51 NBE=    51 NFC=    14 NFV=     0
 NROrb=    383 NOA=    37 NOB=    37 NVA=   346 NVB=   346

 **** Warning!!: The largest alpha MO coefficient is  0.12534221D+03

 Would need an additional         18871500000 words for in-memory AO integral storage.
     8 initial guesses have been made.
 Convergence on wavefunction:    0.001000000000000
 Iteration     1 Dimension     8 NMult     0 NNew      8
 CISAX will form     8 AO SS matrices at one time.
 New state      1 was old state      8
 Iteration     2 Dimension    12 NMult     8 NNew      4
 Iteration     3 Dimension    16 NMult    12 NNew      4
 Iteration     4 Dimension    20 NMult    16 NNew      4
 Iteration     5 Dimension    24 NMult    20 NNew      4
 Iteration     6 Dimension    28 NMult    24 NNew      4
 Iteration     7 Dimension    32 NMult    28 NNew      4
 Iteration     8 Dimension    36 NMult    32 NNew      4
 ***********************************************************************
 Excited states from <AA,BB:AA,BB> singles matrix:
 ***********************************************************************
 
 Ground to excited state transition densities written to RWF  633
 Ground to excited state transition electric dipole moments (Au):
       state          X           Y           Z        Dip. S.      Osc.
         1         1.7359      0.9868      0.1528      4.0105      0.4072
 Ground to excited state transition velocity dipole moments (Au):
       state          X           Y           Z        Dip. S.      Osc.
         1        -0.2631     -0.1517     -0.0259      0.0929      0.4066
 Ground to excited state transition magnetic dipole moments (Au):
       state          X           Y           Z
         1         0.8508     -1.2573     -0.5446
 Ground to excited state transition velocity quadrupole moments (Au):
       state          XX          YY          ZZ          XY          XZ          YZ
         1         1.0414      1.0653     -0.0820      1.2104     -0.8785     -0.3424
 <0|del|b> * <b|rxdel|0> + <0|del|b> * <b|delr+rdel|0>
 Rotatory Strengths (R) in cgs (10**-40 erg-esu-cm/Gauss)
       state          XX          YY          ZZ    R(velocity)    E-M Angle
         1        93.3382   -205.0101     23.2455    -29.4755       92.22
 1/2[<0|r|b>*<b|rxdel|0> + (<0|rxdel|b>*<b|r|0>)*]
 Rotatory Strengths (R) in cgs (10**-40 erg-esu-cm/Gauss)
       state          XX          YY          ZZ     R(length)
         1     -1044.4718    877.3724     58.8479    -36.0838
  1/2[<0|del|b>*<b|r|0> + (<0|r|b>*<b|del|0>)*] (Au)
       state          X           Y           Z        Dip. S.   Osc.(frdel)
         1        -0.4567     -0.1497     -0.0040      0.6104      0.4069

 Excitation energies and oscillator strengths:
 
 Excited state symmetry could not be determined.
 Excited State   1:      Singlet-?Sym    4.1446 eV  299.15 nm  f=0.4072  <S**2>=0.000
      48 -> 52         0.26234
      49 -> 52         0.15303
      51 -> 52         0.60842
 This state for optimization and/or second-order correction.
 Total Energy, E(TD-HF/TD-KS) =  -631.999479677    
 Copying the excited state density for this state as the 1-particle RhoCI density.
 SavETr:  write IOETrn=   770 NScale= 10 NData=  16 NLR=1 NState=    1 LETran=      28.

 **********************************************************************

            Population analysis using the SCF density.

 **********************************************************************

 Alpha  occ. eigenvalues --  -19.24880 -19.21894 -14.49399 -10.37010 -10.34844
 Alpha  occ. eigenvalues --  -10.34825 -10.34230 -10.33901 -10.29278 -10.29050
 Alpha  occ. eigenvalues --  -10.28899 -10.27835 -10.27629 -10.27254  -1.15726
 Alpha  occ. eigenvalues --   -1.12094  -1.09254  -0.95517  -0.89493  -0.86128
 Alpha  occ. eigenvalues --   -0.85524  -0.83597  -0.80393  -0.73520  -0.70032
 Alpha  occ. eigenvalues --   -0.68702  -0.65191  -0.63185  -0.60275  -0.59041
 Alpha  occ. eigenvalues --   -0.58849  -0.58046  -0.55152  -0.53224  -0.52104
 Alpha  occ. eigenvalues --   -0.51807  -0.51397  -0.51173  -0.50329  -0.49789
 Alpha  occ. eigenvalues --   -0.47105  -0.46774  -0.46166  -0.45178  -0.42230
 Alpha  occ. eigenvalues --   -0.41928  -0.41819  -0.33668  -0.33126  -0.30016
 Alpha  occ. eigenvalues --   -0.28724
 Alpha virt. eigenvalues --    0.00414   0.02608   0.04154   0.04967   0.05618
 Alpha virt. eigenvalues --    0.05902   0.06185   0.06515   0.07604   0.07938
 Alpha virt. eigenvalues --    0.08019   0.08328   0.08404   0.10111   0.10204
 Alpha virt. eigenvalues --    0.11137   0.12258   0.12775   0.12993   0.13594
 Alpha virt. eigenvalues --    0.14112   0.14634   0.14937   0.15077   0.15881
 Alpha virt. eigenvalues --    0.16170   0.16398   0.16666   0.16863   0.17408
 Alpha virt. eigenvalues --    0.17661   0.18034   0.18254   0.18759   0.19116
 Alpha virt. eigenvalues --    0.19705   0.20076   0.20412   0.20958   0.21225
 Alpha virt. eigenvalues --    0.21656   0.22196   0.22518   0.22975   0.23463
 Alpha virt. eigenvalues --    0.23855   0.24162   0.24576   0.24997   0.25586
 Alpha virt. eigenvalues --    0.26174   0.26875   0.27098   0.27419   0.27938
 Alpha virt. eigenvalues --    0.28056   0.28651   0.29534   0.29559   0.30033
 Alpha virt. eigenvalues --    0.30469   0.30848   0.31649   0.31888   0.32828
 Alpha virt. eigenvalues --    0.33591   0.33842   0.34461   0.34731   0.34984
 Alpha virt. eigenvalues --    0.35378   0.35976   0.36710   0.37248   0.37513
 Alpha virt. eigenvalues --    0.37730   0.38413   0.39153   0.39598   0.40192
 Alpha virt. eigenvalues --    0.40370   0.41151   0.41191   0.42373   0.43075
 Alpha virt. eigenvalues --    0.43813   0.44260   0.45220   0.45340   0.46968
 Alpha virt. eigenvalues --    0.47847   0.49948   0.50419   0.51660   0.52320
 Alpha virt. eigenvalues --    0.52458   0.54759   0.56372   0.57001   0.59257
 Alpha virt. eigenvalues --    0.60910   0.61693   0.63011   0.63346   0.64146
 Alpha virt. eigenvalues --    0.64889   0.65504   0.66095   0.66889   0.67570
 Alpha virt. eigenvalues --    0.68010   0.69306   0.69807   0.70317   0.70678
 Alpha virt. eigenvalues --    0.70892   0.71228   0.71766   0.72431   0.74031
 Alpha virt. eigenvalues --    0.75210   0.75436   0.75601   0.77541   0.78088
 Alpha virt. eigenvalues --    0.78890   0.79273   0.80496   0.81072   0.82678
 Alpha virt. eigenvalues --    0.83090   0.84294   0.86152   0.86587   0.87384
 Alpha virt. eigenvalues --    0.89064   0.90821   0.92635   0.94076   0.94545
 Alpha virt. eigenvalues --    0.95124   0.96058   0.96815   0.97873   0.98481
 Alpha virt. eigenvalues --    0.99174   1.00274   1.02003   1.03218   1.04064
 Alpha virt. eigenvalues --    1.04961   1.05988   1.07595   1.09166   1.10412
 Alpha virt. eigenvalues --    1.12662   1.13110   1.13848   1.15343   1.16351
 Alpha virt. eigenvalues --    1.17744   1.18899   1.19446   1.21533   1.22111
 Alpha virt. eigenvalues --    1.23178   1.25831   1.27991   1.32079   1.32996
 Alpha virt. eigenvalues --    1.33984   1.34616   1.36178   1.38639   1.40439
 Alpha virt. eigenvalues --    1.42834   1.44405   1.46011   1.50329   1.50929
 Alpha virt. eigenvalues --    1.51156   1.54513   1.56027   1.57172   1.58792
 Alpha virt. eigenvalues --    1.60015   1.60400   1.62291   1.62950   1.63487
 Alpha virt. eigenvalues --    1.64529   1.65752   1.66204   1.66742   1.67919
 Alpha virt. eigenvalues --    1.70091   1.72115   1.72876   1.74077   1.75285
 Alpha virt. eigenvalues --    1.75929   1.76673   1.77719   1.80333   1.81141
 Alpha virt. eigenvalues --    1.82855   1.83033   1.83589   1.84008   1.86196
 Alpha virt. eigenvalues --    1.87733   1.89659   1.90994   1.91680   1.93970
 Alpha virt. eigenvalues --    1.98602   2.00305   2.01473   2.02112   2.03041
 Alpha virt. eigenvalues --    2.03282   2.04599   2.04927   2.06142   2.06953
 Alpha virt. eigenvalues --    2.08871   2.10135   2.11609   2.11961   2.14671
 Alpha virt. eigenvalues --    2.15930   2.17413   2.20132   2.21804   2.23987
 Alpha virt. eigenvalues --    2.25106   2.26703   2.30594   2.31688   2.35813
 Alpha virt. eigenvalues --    2.38361   2.40542   2.43024   2.46056   2.47049
 Alpha virt. eigenvalues --    2.48336   2.50376   2.52645   2.54820   2.55355
 Alpha virt. eigenvalues --    2.57430   2.58019   2.59532   2.62078   2.62634
 Alpha virt. eigenvalues --    2.63759   2.67214   2.69013   2.71285   2.72104
 Alpha virt. eigenvalues --    2.75225   2.75819   2.77379   2.79957   2.80885
 Alpha virt. eigenvalues --    2.82321   2.83087   2.83699   2.84331   2.85716
 Alpha virt. eigenvalues --    2.86106   2.87849   2.89298   2.90056   2.91050
 Alpha virt. eigenvalues --    2.92352   2.94344   2.95915   2.96707   2.99552
 Alpha virt. eigenvalues --    3.00602   3.03470   3.05864   3.08266   3.11779
 Alpha virt. eigenvalues --    3.14389   3.16845   3.20308   3.22859   3.23501
 Alpha virt. eigenvalues --    3.24699   3.27873   3.30011   3.31764   3.32223
 Alpha virt. eigenvalues --    3.37885   3.43612   3.47130   3.51165   3.56186
 Alpha virt. eigenvalues --    3.61246   3.63344   3.65169   3.68266   3.70143
 Alpha virt. eigenvalues --    3.72552   3.75055   3.80582   3.81502   3.82551
 Alpha virt. eigenvalues --    3.85055   3.90004   3.93017   3.94260   4.03832
 Alpha virt. eigenvalues --    4.09101   4.13097   4.15193   4.17658   4.28991
 Alpha virt. eigenvalues --    4.30579   4.39579   4.62693   4.95216   4.97904
 Alpha virt. eigenvalues --    5.15234   5.17824   5.20254   5.41975   5.62982
 Alpha virt. eigenvalues --    5.90388   5.93600  23.73548  23.95237  24.03944
 Alpha virt. eigenvalues --   24.05112  24.06492  24.07526  24.10071  24.17996
 Alpha virt. eigenvalues --   24.25288  24.28082  24.34144  35.70410  50.13871
 Alpha virt. eigenvalues --   50.19270
          Condensed to atoms (all electrons):
               1          2          3          4          5          6
     1  H    0.558236   0.405119  -0.030939  -0.061761  -0.046659  -0.052202
     2  C    0.405119   5.211001   0.407971   0.407648   0.270051   0.002194
     3  H   -0.030939   0.407971   0.536877  -0.022222  -0.094702   0.095770
     4  H   -0.061761   0.407648  -0.022222   0.553431  -0.050247  -0.021982
     5  N   -0.046659   0.270051  -0.094702  -0.050247   6.858135   0.155617
     6  C   -0.052202   0.002194   0.095770  -0.021982   0.155617  13.980420
     7  C    0.014584  -0.054422  -0.005167  -0.007971   0.234377  -0.084273
     8  C    0.038451  -0.188373  -0.051149   0.020113  -0.213823  -4.508806
     9  H    0.002859  -0.027119  -0.006850   0.002363  -0.071043   0.486363
    10  H    0.001909   0.001386  -0.001281  -0.002500  -0.050316   0.078153
    11  H   -0.007799   0.012167   0.003276  -0.003535  -0.051582   0.045157
    12  H   -0.000455  -0.003257  -0.002149   0.003725  -0.043179  -0.058301
    13  C   -0.003543  -0.140280   0.017076  -0.001688   0.004132  -3.883466
    14  H    0.000446  -0.013337  -0.002676   0.002517  -0.031895  -0.385027
    15  C   -0.001060   0.042073   0.011879  -0.001183  -0.007877   0.964600
    16  O   -0.000170   0.002427   0.000954   0.000049   0.004809   0.184759
    17  C   -0.000094  -0.001151   0.001786  -0.000127  -0.001697  -1.347055
    18  C   -0.000491  -0.007656  -0.000659   0.000621   0.006892   0.510760
    19  H   -0.000007   0.000088   0.000123   0.000022   0.000236  -0.013540
    20  C   -0.000017  -0.000968   0.000413  -0.000095  -0.000185  -0.081569
    21  O   -0.000002   0.000176  -0.000024   0.000004  -0.000063   0.015836
    22  C    0.000035   0.001659  -0.000595   0.000336   0.002037  -0.233414
    23  H    0.000174  -0.000972   0.000492  -0.000347  -0.003290  -0.023404
    24  C   -0.000022  -0.000357  -0.000002   0.000003   0.000194  -0.062318
    25  H    0.000000   0.000012   0.000005   0.000000   0.000002  -0.000303
    26  H    0.000002   0.000105  -0.000004   0.000006   0.000033   0.001779
    27  H    0.000000   0.000002   0.000000   0.000000   0.000000   0.000656
               7          8          9         10         11         12
     1  H    0.014584   0.038451   0.002859   0.001909  -0.007799  -0.000455
     2  C   -0.054422  -0.188373  -0.027119   0.001386   0.012167  -0.003257
     3  H   -0.005167  -0.051149  -0.006850  -0.001281   0.003276  -0.002149
     4  H   -0.007971   0.020113   0.002363  -0.002500  -0.003535   0.003725
     5  N    0.234377  -0.213823  -0.071043  -0.050316  -0.051582  -0.043179
     6  C   -0.084273  -4.508806   0.486363   0.078153   0.045157  -0.058301
     7  C    5.266043   0.514192   0.005412   0.416388   0.386591   0.411234
     8  C    0.514192  23.022829  -0.096733  -0.098527   0.009219   0.037983
     9  H    0.005412  -0.096733   0.470523   0.002411   0.000127  -0.002020
    10  H    0.416388  -0.098527   0.002411   0.536018  -0.014067  -0.055590
    11  H    0.386591   0.009219   0.000127  -0.014067   0.490258  -0.026032
    12  H    0.411234   0.037983  -0.002020  -0.055590  -0.026032   0.532992
    13  C   -0.422990  -0.744285   0.039187   0.017673  -0.029156  -0.000612
    14  H    0.033966   1.086529   0.001730  -0.029338  -0.002075   0.010993
    15  C   -0.198326  -7.652938  -0.021581  -0.003409  -0.006144  -0.002967
    16  O   -0.001439  -0.233066   0.012128   0.000257   0.000038  -0.000065
    17  C   -0.021577  -1.863476  -0.043341  -0.005216  -0.000511  -0.002498
    18  C   -0.044755  -1.902027   0.020416   0.015796  -0.003734   0.006503
    19  H   -0.001145  -0.022031  -0.000646   0.000088  -0.000078   0.000042
    20  C   -0.005345  -1.024255  -0.001560   0.000644  -0.000111  -0.000179
    21  O   -0.000241  -0.082634   0.000394   0.000124  -0.000007   0.000029
    22  C    0.012628   0.523864  -0.004218  -0.004402  -0.000022   0.002722
    23  H   -0.003470  -0.226937   0.000244   0.004529   0.000369  -0.005130
    24  C   -0.004052  -0.270990   0.000454   0.000423  -0.000162   0.000590
    25  H   -0.000001  -0.007799  -0.000203  -0.000016   0.000000  -0.000005
    26  H    0.000057   0.005462  -0.000116  -0.000288  -0.000016   0.000174
    27  H   -0.000061  -0.001865   0.000038   0.000031  -0.000002  -0.000002
              13         14         15         16         17         18
     1  H   -0.003543   0.000446  -0.001060  -0.000170  -0.000094  -0.000491
     2  C   -0.140280  -0.013337   0.042073   0.002427  -0.001151  -0.007656
     3  H    0.017076  -0.002676   0.011879   0.000954   0.001786  -0.000659
     4  H   -0.001688   0.002517  -0.001183   0.000049  -0.000127   0.000621
     5  N    0.004132  -0.031895  -0.007877   0.004809  -0.001697   0.006892
     6  C   -3.883466  -0.385027   0.964600   0.184759  -1.347055   0.510760
     7  C   -0.422990   0.033966  -0.198326  -0.001439  -0.021577  -0.044755
     8  C   -0.744285   1.086529  -7.652938  -0.233066  -1.863476  -1.902027
     9  H    0.039187   0.001730  -0.021581   0.012128  -0.043341   0.020416
    10  H    0.017673  -0.029338  -0.003409   0.000257  -0.005216   0.015796
    11  H   -0.029156  -0.002075  -0.006144   0.000038  -0.000511  -0.003734
    12  H   -0.000612   0.010993  -0.002967  -0.000065  -0.002498   0.006503
    13  C   17.507210  -0.068672  -2.238824   0.736804  -0.456810  -1.599755
    14  H   -0.068672   0.758688  -0.125701   0.002988   0.170736  -0.433701
    15  C   -2.238824  -0.125701  19.577557  -0.162567  -1.049655  -1.516488
    16  O    0.736804   0.002988  -0.162567   8.150926  -0.075486  -0.222741
    17  C   -0.456810   0.170736  -1.049655  -0.075486  18.844531  -7.548549
    18  C   -1.599755  -0.433701  -1.516488  -0.222741  -7.548549  18.311826
    19  H    0.004453  -0.001390  -0.138832   0.060666   0.016045   0.045113
    20  C   -2.391901  -0.053143  -1.744612  -0.112933  -2.006921   3.501925
    21  O   -0.108037  -0.003057   0.179955   0.001039   0.422299  -0.019053
    22  C    0.836186   0.051153  -1.632578   0.011822   1.783879  -2.605466
    23  H    0.051764  -0.065970  -0.169529  -0.007362  -0.132673   0.917118
    24  C   -0.299671  -0.004640   0.191324  -0.017659  -0.749038  -0.173138
    25  H   -0.026855  -0.000044  -0.082379   0.000250  -0.102538   0.034575
    26  H    0.000396   0.004656   0.024774   0.000803   0.058064  -0.133048
    27  H    0.004297  -0.000519   0.093053  -0.000221   0.017169  -0.053298
              19         20         21         22         23         24
     1  H   -0.000007  -0.000017  -0.000002   0.000035   0.000174  -0.000022
     2  C    0.000088  -0.000968   0.000176   0.001659  -0.000972  -0.000357
     3  H    0.000123   0.000413  -0.000024  -0.000595   0.000492  -0.000002
     4  H    0.000022  -0.000095   0.000004   0.000336  -0.000347   0.000003
     5  N    0.000236  -0.000185  -0.000063   0.002037  -0.003290   0.000194
     6  C   -0.013540  -0.081569   0.015836  -0.233414  -0.023404  -0.062318
     7  C   -0.001145  -0.005345  -0.000241   0.012628  -0.003470  -0.004052
     8  C   -0.022031  -1.024255  -0.082634   0.523864  -0.226937  -0.270990
     9  H   -0.000646  -0.001560   0.000394  -0.004218   0.000244   0.000454
    10  H    0.000088   0.000644   0.000124  -0.004402   0.004529   0.000423
    11  H   -0.000078  -0.000111  -0.000007  -0.000022   0.000369  -0.000162
    12  H    0.000042  -0.000179   0.000029   0.002722  -0.005130   0.000590
    13  C    0.004453  -2.391901  -0.108037   0.836186   0.051764  -0.299671
    14  H   -0.001390  -0.053143  -0.003057   0.051153  -0.065970  -0.004640
    15  C   -0.138832  -1.744612   0.179955  -1.632578  -0.169529   0.191324
    16  O    0.060666  -0.112933   0.001039   0.011822  -0.007362  -0.017659
    17  C    0.016045  -2.006921   0.422299   1.783879  -0.132673  -0.749038
    18  C    0.045113   3.501925  -0.019053  -2.605466   0.917118  -0.173138
    19  H    0.331564   0.108821   0.260674  -0.001881   0.002007  -0.004451
    20  C    0.108821  10.591218  -0.424577  -1.153773   0.130312   0.691705
    21  O    0.260674  -0.424577   8.060366  -0.007232  -0.001936   0.016120
    22  C   -0.001881  -1.153773  -0.007232   8.532518  -0.166127   0.289345
    23  H    0.002007   0.130312  -0.001936  -0.166127   0.615280   0.002491
    24  C   -0.004451   0.691705   0.016120   0.289345   0.002491   6.244887
    25  H    0.001899   0.561631  -0.025420  -0.000238   0.001326  -0.036344
    26  H    0.000236  -0.006055   0.000159   0.430287  -0.020359  -0.055025
    27  H   -0.000498  -0.124669   0.000797  -0.070659  -0.000430   0.463740
              25         26         27
     1  H    0.000000   0.000002   0.000000
     2  C    0.000012   0.000105   0.000002
     3  H    0.000005  -0.000004   0.000000
     4  H    0.000000   0.000006   0.000000
     5  N    0.000002   0.000033   0.000000
     6  C   -0.000303   0.001779   0.000656
     7  C   -0.000001   0.000057  -0.000061
     8  C   -0.007799   0.005462  -0.001865
     9  H   -0.000203  -0.000116   0.000038
    10  H   -0.000016  -0.000288   0.000031
    11  H    0.000000  -0.000016  -0.000002
    12  H   -0.000005   0.000174  -0.000002
    13  C   -0.026855   0.000396   0.004297
    14  H   -0.000044   0.004656  -0.000519
    15  C   -0.082379   0.024774   0.093053
    16  O    0.000250   0.000803  -0.000221
    17  C   -0.102538   0.058064   0.017169
    18  C    0.034575  -0.133048  -0.053298
    19  H    0.001899   0.000236  -0.000498
    20  C    0.561631  -0.006055  -0.124669
    21  O   -0.025420   0.000159   0.000797
    22  C   -0.000238   0.430287  -0.070659
    23  H    0.001326  -0.020359  -0.000430
    24  C   -0.036344  -0.055025   0.463740
    25  H    0.466087   0.000862  -0.012330
    26  H    0.000862   0.484696  -0.010269
    27  H   -0.012330  -0.010269   0.493994
 Mulliken charges:
               1
     1  H    0.183410
     2  C   -0.326186
     3  H    0.141799
     4  H    0.182820
     5  N    0.130045
     6  C    0.233595
     7  C   -0.440236
     8  C   -0.068928
     9  H    0.230783
    10  H    0.189122
    11  H    0.197832
    12  H    0.195457
    13  C   -0.802630
    14  H    0.096785
    15  C    1.671437
    16  O   -0.337010
    17  C    0.093902
    18  C   -1.106988
    19  H    0.352421
    20  C   -0.453802
    21  O   -0.285690
    22  C   -0.597866
    23  H    0.101829
    24  C   -0.223408
    25  H    0.227829
    26  H    0.212632
    27  H    0.201047
 Sum of Mulliken charges =   0.00000
 Mulliken charges with hydrogens summed into heavy atoms:
               1
     2  C    0.181842
     5  N    0.130045
     6  C    0.464379
     7  C    0.142174
     8  C    0.027857
    13  C   -0.802630
    15  C    1.671437
    16  O   -0.337010
    17  C    0.093902
    18  C   -1.005159
    20  C   -0.225973
    21  O    0.066731
    22  C   -0.385234
    24  C   -0.022361
 Electronic spatial extent (au):  <R**2>=           6865.7426
 Charge=              0.0000 electrons
 Dipole moment (field-independent basis, Debye):
    X=              5.0972    Y=              3.9738    Z=              3.3189  Tot=              7.2655
 Quadrupole moment (field-independent basis, Debye-Ang):
   XX=            -74.3380   YY=            -97.5899   ZZ=            -72.7694
   XY=             -3.8752   XZ=              0.9521   YZ=             -0.1052
 Traceless Quadrupole moment (field-independent basis, Debye-Ang):
   XX=              7.2277   YY=            -16.0241   ZZ=              8.7964
   XY=             -3.8752   XZ=              0.9521   YZ=             -0.1052
 Octapole moment (field-independent basis, Debye-Ang**2):
  XXX=            327.8997  YYY=            522.2679  ZZZ=           -411.6812  XYY=            124.8264
  XXY=            148.2848  XXZ=           -105.6960  XZZ=            106.6791  YZZ=            161.5844
  YYZ=           -154.2435  XYZ=             14.6582
 Hexadecapole moment (field-independent basis, Debye-Ang**3):
 XXXX=          -4058.1348 YYYY=          -2960.8394 ZZZZ=          -2242.3464 XXXY=          -1213.9628
 XXXZ=            562.1031 YYYX=          -1465.4537 YYYZ=            772.7693 ZZZX=            675.4311
 ZZZY=            777.2137 XXYY=          -1142.1439 XXZZ=           -973.4733 YYZZ=           -898.9688
 XXYZ=            148.5838 YYXZ=            199.0438 ZZXY=           -441.6689
 N-N= 8.383613349374D+02 E-N=-3.150619149394D+03  KE= 6.296336563842D+02
 1\1\GINC-NXV34\SP\RwB97XD TD-FC\6-311++G(d,p)\C11H13N1O2\CA12053\18-Se
 p-2017\0\\# wb97xd 6-311++g** td=(root=1,nstates=1) nosymm\\Monomer Ex
 citation H1\\0,1\H,0,3.249809,1.255049,1.149636\C,0,3.156912,0.167462,
 1.080475\H,0,3.018558,-0.097841,0.031927\H,0,4.079346,-0.295969,1.4439
 57\N,0,2.022127,-0.300574,1.856453\C,0,0.971087,-0.884025,1.28055\C,0,
 2.014763,-0.017902,3.278582\C,0,-0.181857,-1.281173,1.90317\H,0,1.0562
 4,-1.062342,0.21247\H,0,1.819639,-0.932225,3.848537\H,0,2.987944,0.374
 064,3.57111\H,0,1.248162,0.724955,3.527576\C,0,-1.172143,-1.99476,1.14
 5085\H,0,-0.335935,-1.105601,2.956483\C,0,-2.465425,-2.364375,1.787541
 \O,0,-0.977156,-2.330632,-0.04286\C,0,-3.298074,-3.321217,1.163794\C,0
 ,-2.903713,-1.792329,2.990652\H,0,-2.151107,-3.4528,-0.305064\C,0,-4.4
 98958,-3.70417,1.771591\O,0,-2.983612,-3.890922,-0.005857\C,0,-4.10195
 7,-2.154185,3.576386\H,0,-2.299292,-1.030018,3.4667\C,0,-4.894978,-3.1
 24585,2.961132\H,0,-5.106508,-4.452301,1.275116\H,0,-4.42172,-1.687315
 ,4.500109\H,0,-5.835213,-3.421827,3.413024\\Version=ES64L-G09RevD.01\H
 F=-632.1517908\RMSD=6.563e-09\PG=C01 [X(C11H13N1O2)]\\@


 Democracy is the recurrent suspicion that more than half of the people
 are right more than half of the time.
 -- E. B. White
 Job cpu time:       0 days  0 hours 58 minutes 42.2 seconds.
 File lengths (MBytes):  RWF=    156 Int=      0 D2E=      0 Chk=     15 Scr=      1
 Normal termination of Gaussian 09 at Mon Sep 18 15:11:22 2017.
