 Entering Gaussian System, Link 0=g09
 Input=H2_HP_Mon.com
 Output=H2_HP_Mon.out
 Initial command:
 /share/apps/gaussian/g09_D01/g09/l1.exe "/tmp/135106.1.all.q/Gau-18744.inp" -scrdir="/tmp/135106.1.all.q/"
 Entering Link 1 = /share/apps/gaussian/g09_D01/g09/l1.exe PID=     18745.
  
 Copyright (c) 1988,1990,1992,1993,1995,1998,2003,2009,2013,
            Gaussian, Inc.  All Rights Reserved.
  
 This is part of the Gaussian(R) 09 program.  It is based on
 the Gaussian(R) 03 system (copyright 2003, Gaussian, Inc.),
 the Gaussian(R) 98 system (copyright 1998, Gaussian, Inc.),
 the Gaussian(R) 94 system (copyright 1995, Gaussian, Inc.),
 the Gaussian 92(TM) system (copyright 1992, Gaussian, Inc.),
 the Gaussian 90(TM) system (copyright 1990, Gaussian, Inc.),
 the Gaussian 88(TM) system (copyright 1988, Gaussian, Inc.),
 the Gaussian 86(TM) system (copyright 1986, Carnegie Mellon
 University), and the Gaussian 82(TM) system (copyright 1983,
 Carnegie Mellon University). Gaussian is a federally registered
 trademark of Gaussian, Inc.
  
 This software contains proprietary and confidential information,
 including trade secrets, belonging to Gaussian, Inc.
  
 This software is provided under written license and may be
 used, copied, transmitted, or stored only in accord with that
 written license.
  
 The following legend is applicable only to US Government
 contracts under FAR:
  
                    RESTRICTED RIGHTS LEGEND
  
 Use, reproduction and disclosure by the US Government is
 subject to restrictions as set forth in subparagraphs (a)
 and (c) of the Commercial Computer Software - Restricted
 Rights clause in FAR 52.227-19.
  
 Gaussian, Inc.
 340 Quinnipiac St., Bldg. 40, Wallingford CT 06492
  
  
 ---------------------------------------------------------------
 Warning -- This program may not be used in any manner that
 competes with the business of Gaussian, Inc. or will provide
 assistance to any competitor of Gaussian, Inc.  The licensee
 of this program is prohibited from giving any competitor of
 Gaussian, Inc. access to this program.  By using this program,
 the user acknowledges that Gaussian, Inc. is engaged in the
 business of creating and licensing software in the field of
 computational chemistry and represents and warrants to the
 licensee that it is not a competitor of Gaussian, Inc. and that
 it will not use this program in any manner prohibited above.
 ---------------------------------------------------------------
  

 Cite this work as:
 Gaussian 09, Revision D.01,
 M. J. Frisch, G. W. Trucks, H. B. Schlegel, G. E. Scuseria, 
 M. A. Robb, J. R. Cheeseman, G. Scalmani, V. Barone, B. Mennucci, 
 G. A. Petersson, H. Nakatsuji, M. Caricato, X. Li, H. P. Hratchian, 
 A. F. Izmaylov, J. Bloino, G. Zheng, J. L. Sonnenberg, M. Hada, 
 M. Ehara, K. Toyota, R. Fukuda, J. Hasegawa, M. Ishida, T. Nakajima, 
 Y. Honda, O. Kitao, H. Nakai, T. Vreven, J. A. Montgomery, Jr., 
 J. E. Peralta, F. Ogliaro, M. Bearpark, J. J. Heyd, E. Brothers, 
 K. N. Kudin, V. N. Staroverov, T. Keith, R. Kobayashi, J. Normand, 
 K. Raghavachari, A. Rendell, J. C. Burant, S. S. Iyengar, J. Tomasi, 
 M. Cossi, N. Rega, J. M. Millam, M. Klene, J. E. Knox, J. B. Cross, 
 V. Bakken, C. Adamo, J. Jaramillo, R. Gomperts, R. E. Stratmann, 
 O. Yazyev, A. J. Austin, R. Cammi, C. Pomelli, J. W. Ochterski, 
 R. L. Martin, K. Morokuma, V. G. Zakrzewski, G. A. Voth, 
 P. Salvador, J. J. Dannenberg, S. Dapprich, A. D. Daniels, 
 O. Farkas, J. B. Foresman, J. V. Ortiz, J. Cioslowski, 
 and D. J. Fox, Gaussian, Inc., Wallingford CT, 2013.
 
 ******************************************
 Gaussian 09:  ES64L-G09RevD.01 24-Apr-2013
                18-Sep-2017 
 ******************************************
 %chk=HP_Mon_H_2.chk
 %mem=2GB
 %nproc=4
 Will use up to    4 processors via shared memory.
 ------------------------------------------------
 # wb97xd 6-311++g** td=(root=1,nstates=1) nosymm
 ------------------------------------------------
 1/38=1/1;
 2/12=2,15=1,17=6,18=5,40=1/2;
 3/5=4,6=6,7=1111,11=9,16=1,25=1,30=1,74=-58/1,2,8,3;
 4//1;
 5/5=2,38=5/2;
 8/6=1,10=2,107=1,108=1/1;
 9/8=1,41=1,42=1,70=2/14;
 6/7=2,8=2,9=2,10=2/1;
 99/5=1,9=1/99;
 ---------------------
 Monomer Excitation H2
 ---------------------
 Symbolic Z-matrix:
 Charge =  0 Multiplicity = 1
 C                     2.46241   2.37557  -1.80013 
 C                     1.15958   2.01336  -1.17347 
 C                     3.31349   3.29215  -1.13996 
 C                     2.88856   1.85274  -3.03034 
 C                     0.20104   1.23079  -1.90531 
 O                     0.92188   2.41853  -0.01493 
 C                     4.52527   3.67128  -1.72941 
 O                     3.00777   3.82744   0.04636 
 H                     2.13318   3.43854   0.30019 
 C                     4.09214   2.21691  -3.6018 
 H                     2.26408   1.13873  -3.55218 
 C                    -1.00096   0.94717  -1.31336 
 H                     0.40752   0.92274  -2.91837 
 C                     4.90821   3.13911  -2.94363 
 H                     5.1445    4.38873  -1.20387 
 H                     4.39438   1.79531  -4.55264 
 H                    -1.15139   1.28961  -0.29337 
 N                    -2.02894   0.30439  -1.86519 
 H                     5.84976   3.4434   -3.38793 
 C                    -1.92254  -0.23448  -3.20713 
 C                    -3.22645  -0.0081   -1.10544 
 H                    -1.64594   0.55289  -3.91596 
 H                    -2.8866   -0.64444  -3.50716 
 H                    -1.17215  -1.03141  -3.24528 
 H                    -3.16745   0.46171  -0.12409 
 H                    -3.32726  -1.08816  -0.9685 
 H                    -4.11116   0.37558  -1.62348 
 
                          Input orientation:                          
 ---------------------------------------------------------------------
 Center     Atomic      Atomic             Coordinates (Angstroms)
 Number     Number       Type             X           Y           Z
 ---------------------------------------------------------------------
      1          6           0        2.462405    2.375572   -1.800125
      2          6           0        1.159578    2.013360   -1.173465
      3          6           0        3.313492    3.292147   -1.139962
      4          6           0        2.888558    1.852738   -3.030336
      5          6           0        0.201041    1.230789   -1.905309
      6          8           0        0.921875    2.418525   -0.014927
      7          6           0        4.525267    3.671279   -1.729410
      8          8           0        3.007768    3.827443    0.046358
      9          1           0        2.133175    3.438542    0.300185
     10          6           0        4.092137    2.216912   -3.601796
     11          1           0        2.264076    1.138734   -3.552176
     12          6           0       -1.000959    0.947165   -1.313357
     13          1           0        0.407522    0.922738   -2.918369
     14          6           0        4.908207    3.139107   -2.943634
     15          1           0        5.144495    4.388729   -1.203865
     16          1           0        4.394380    1.795305   -4.552644
     17          1           0       -1.151386    1.289612   -0.293372
     18          7           0       -2.028940    0.304394   -1.865188
     19          1           0        5.849760    3.443398   -3.387932
     20          6           0       -1.922537   -0.234483   -3.207129
     21          6           0       -3.226450   -0.008097   -1.105437
     22          1           0       -1.645935    0.552887   -3.915959
     23          1           0       -2.886600   -0.644443   -3.507159
     24          1           0       -1.172147   -1.031410   -3.245282
     25          1           0       -3.167451    0.461706   -0.124087
     26          1           0       -3.327256   -1.088156   -0.968495
     27          1           0       -4.111155    0.375575   -1.623476
 ---------------------------------------------------------------------
                    Distance matrix (angstroms):
                    1          2          3          4          5
     1  C    0.000000
     2  C    1.490389   0.000000
     3  C    1.414310   2.505148   0.000000
     4  C    1.402990   2.542271   2.413707   0.000000
     5  C    2.536801   1.437639   3.810814   2.979136   0.000000
     6  O    2.358391   1.250149   2.783658   3.644262   2.346031
     7  C    2.437059   3.792840   1.399853   2.770977   4.968487
     8  O    2.411400   2.862634   1.336923   3.657830   4.292940
     9  H    2.376889   2.269511   1.867780   3.765335   3.670357
    10  C    2.434588   3.812890   2.796971   1.381228   4.357882
    11  H    2.153784   2.764625   3.399594   1.082634   2.641355
    12  C    3.777854   2.413351   4.913603   4.347001   1.369545
    13  H    2.753859   2.190830   4.149879   2.651976   1.078805
    14  C    2.805806   4.295698   2.412420   2.396089   5.184323
    15  H    3.406161   4.639274   2.135216   3.854413   5.907821
    16  H    3.412565   4.682984   3.880110   2.142013   4.991107
    17  H    4.063139   2.576612   4.966085   4.912151   2.104961
    18  N    4.946331   3.683163   6.163944   5.285520   2.415084
    19  H    3.890444   5.380212   3.392477   3.380354   6.245145
    20  C    5.293370   4.322964   6.642763   5.247321   2.889869
    21  C    6.207056   4.829923   7.325547   6.675423   3.731264
    22  H    4.967634   4.186306   6.309170   4.799538   2.813109
    23  H    6.375446   5.374160   7.716314   6.309970   3.951702
    24  H    5.187097   4.358898   6.576205   4.985362   2.966263
    25  H    6.177966   4.715083   7.144650   6.859774   3.887284
    26  H    6.797735   5.458305   7.957134   7.178885   4.324813
    27  H    6.873346   5.537642   7.991593   7.290902   4.405208
                    6          7          8          9         10
     6  O    0.000000
     7  C    4.182497   0.000000
     8  O    2.517887   2.341056   0.000000
     9  H    1.614614   3.145716   0.990245   0.000000
    10  C    4.791329   2.410107   4.132638   4.533803   0.000000
    11  H    3.993933   3.853472   4.553206   4.488534   2.122908
    12  C    2.747383   6.175198   5.120031   4.316628   5.726154
    13  H    3.306344   5.091554   4.897775   4.434663   3.964637
    14  C    4.998740   1.379924   3.609089   4.279349   1.396278
    15  H    4.808929   1.083686   2.538445   3.497581   3.402105
    16  H    5.747832   3.392206   5.215659   5.600288   1.083151
    17  H    2.377054   6.321308   4.884113   3.969704   6.268978
    18  N    4.074350   7.369666   6.436949   5.642245   6.643878
    19  H    6.059008   2.134691   4.474233   5.235956   2.153891
    20  C    5.031827   7.681979   7.168844   6.499320   6.507027
    21  C    4.928114   8.603271   7.409688   6.525387   8.046377
    22  H    5.029145   7.251834   6.933947   6.354884   5.982737
    23  H    6.006824   8.759088   8.207851   7.507648   7.543148
    24  H    5.169349   7.541464   7.205209   6.593630   6.196078
    25  H    4.534715   8.488600   7.034953   6.094112   8.238739
    26  H    5.591173   9.213758   8.082423   7.205335   8.538451
    27  H    5.665021   9.244494   8.085963   7.216224   8.637029
                   11         12         13         14         15
    11  H    0.000000
    12  C    3.963516   0.000000
    13  H    1.973616   2.135528   0.000000
    14  C    3.370941   6.510043   5.016881   0.000000
    15  H    4.936988   7.044356   6.114861   2.155037   0.000000
    16  H    2.443403   6.349961   4.396279   2.158410   4.301493
    17  H    4.723129   1.086401   3.074963   6.867546   7.076132
    18  N    4.687434   1.332072   2.725415   7.571172   8.281142
    19  H    4.265628   7.580725   6.015993   1.084673   2.482176
    20  C    4.419560   2.414947   2.617579   7.622965   8.679291
    21  C    6.119447   2.430754   4.166405   8.913838   9.455923
    22  H    3.970358   2.710164   2.312717   7.112716   8.257062
    23  H    5.450799   3.301761   3.695128   8.682847   9.753793
    24  H    4.075701   2.770631   2.533954   7.379357   8.570021
    25  H    6.458455   2.518674   4.560811   8.962956   9.256126
    26  H    6.549614   3.110164   4.668433   9.465399  10.090700
    27  H    6.704168   3.177453   4.732291   9.525168  10.096957
                   16         17         18         19         20
    16  H    0.000000
    17  H    7.010895   0.000000
    18  N    7.120693   2.052160   0.000000
    19  H    2.488151   7.951801   8.616612   0.000000
    20  C    6.770073   3.377502   1.450005   8.600471   0.000000
    21  C    8.556433   2.578641   1.452206   9.974978   2.483656
    22  H    6.199546   3.729675   2.100977   8.051044   1.094943
    23  H    7.749715   4.132791   2.081332   9.646173   1.089726
    24  H    6.378537   3.755176   2.103123   8.327751   1.095278
    25  H    8.864079   2.186002   2.086238  10.042573   3.397004
    26  H    8.987999   3.293020   2.104490  10.516952   2.777314
    27  H    9.107128   3.371183   2.097406  10.570935   2.769508
                   21         22         23         24         25
    21  C    0.000000
    22  H    3.272883   0.000000
    23  H    2.507729   1.771995   0.000000
    24  H    3.137876   1.784455   1.776984   0.000000
    25  H    1.089607   4.086761   3.570381   3.994057   0.000000
    26  H    1.093363   3.769271   2.614550   3.135518   1.772184
    27  H    1.094656   3.371087   2.467435   3.639729   1.773743
                   26         27
    26  H    0.000000
    27  H    1.784939   0.000000
 Symmetry turned off by external request.
 Stoichiometry    C11H13NO2
 Framework group  C1[X(C11H13NO2)]
 Deg. of freedom    75
 Full point group                 C1      NOp   1
 Rotational constants (GHZ):      1.6184581      0.3221287      0.2702123
 Standard basis: 6-311++G(d,p) (5D, 7F)
   399 basis functions,   621 primitive gaussians,   413 cartesian basis functions
    51 alpha electrons       51 beta electrons
       nuclear repulsion energy       838.4639472021 Hartrees.
 NAtoms=   27 NActive=   27 NUniq=   27 SFac= 1.00D+00 NAtFMM=   60 NAOKFM=F Big=F
 Integral buffers will be    131072 words long.
 Raffenetti 1 integral format.
 Two-electron integral symmetry is turned off.
 Nuclear repulsion after empirical dispersion term =      838.4490054765 Hartrees.
 One-electron integrals computed using PRISM.
 NBasis=   399 RedAO= T EigKep=  1.06D-06  NBF=   399
 NBsUse=   397 1.00D-06 EigRej=  6.45D-07 NBFU=   397
 ExpMin= 3.60D-02 ExpMax= 8.59D+03 ExpMxC= 1.30D+03 IAcc=3 IRadAn=         5 AccDes= 0.00D+00
 Harris functional with IExCor= 4639 and IRadAn=       5 diagonalized for initial guess.
 HarFok:  IExCor= 4639 AccDes= 0.00D+00 IRadAn=         5 IDoV= 1 UseB2=F ITyADJ=14
 ICtDFT=  3500011 ScaDFX=  1.000000  1.000000  1.000000  1.000000
 FoFCou: FMM=F IPFlag=           0 FMFlag=      100000 FMFlg1=           0
         NFxFlg=           0 DoJE=T BraDBF=F KetDBF=T FulRan=T
         wScrn=  0.000000 ICntrl=     500 IOpCl=  0 I1Cent=   200000004 NGrid=           0
         NMat0=    1 NMatS0=      1 NMatT0=    0 NMatD0=    1 NMtDS0=    0 NMtDT0=    0
 Symmetry not used in FoFCou.
 Requested convergence on RMS density matrix=1.00D-08 within 128 cycles.
 Requested convergence on MAX density matrix=1.00D-06.
 Requested convergence on             energy=1.00D-06.
 No special actions if energy rises.
 SCF Done:  E(RwB97XD) =  -632.152047346     A.U. after   17 cycles
            NFock= 17  Conv=0.87D-08     -V/T= 2.0040
 DoSCS=F DFT=T ScalE2(SS,OS)=  1.000000  1.000000
 ExpMin= 3.60D-02 ExpMax= 8.59D+03 ExpMxC= 1.30D+03 IAcc=3 IRadAn=         5 AccDes= 0.00D+00
 HarFok:  IExCor=  205 AccDes= 0.00D+00 IRadAn=         5 IDoV=-2 UseB2=F ITyADJ=14
 ICtDFT= 12500011 ScaDFX=  1.000000  1.000000  1.000000  1.000000
 Range of M.O.s used for correlation:    15   397
 NBasis=   399 NAE=    51 NBE=    51 NFC=    14 NFV=     0
 NROrb=    383 NOA=    37 NOB=    37 NVA=   346 NVB=   346

 **** Warning!!: The largest alpha MO coefficient is  0.17903437D+03

 Would need an additional         18871500000 words for in-memory AO integral storage.
     8 initial guesses have been made.
 Convergence on wavefunction:    0.001000000000000
 Iteration     1 Dimension     8 NMult     0 NNew      8
 CISAX will form     8 AO SS matrices at one time.
 New state      1 was old state      8
 Iteration     2 Dimension    12 NMult     8 NNew      4
 New state      1 was old state      2
 Iteration     3 Dimension    16 NMult    12 NNew      4
 Iteration     4 Dimension    20 NMult    16 NNew      4
 Iteration     5 Dimension    24 NMult    20 NNew      4
 Iteration     6 Dimension    28 NMult    24 NNew      4
 Iteration     7 Dimension    32 NMult    28 NNew      4
 Iteration     8 Dimension    36 NMult    32 NNew      4
 ***********************************************************************
 Excited states from <AA,BB:AA,BB> singles matrix:
 ***********************************************************************
 
 Ground to excited state transition densities written to RWF  633
 Ground to excited state transition electric dipole moments (Au):
       state          X           Y           Z        Dip. S.      Osc.
         1        -1.9360     -1.0866     -0.1567      4.9536      0.5028
 Ground to excited state transition velocity dipole moments (Au):
       state          X           Y           Z        Dip. S.      Osc.
         1         0.2929      0.1668      0.0272      0.1143      0.5006
 Ground to excited state transition magnetic dipole moments (Au):
       state          X           Y           Z
         1         0.8836     -1.3637     -0.4735
 Ground to excited state transition velocity quadrupole moments (Au):
       state          XX          YY          ZZ          XY          XZ          YZ
         1         1.2324      1.1753     -0.0761      1.3873     -0.9506     -0.3881
 <0|del|b> * <b|rxdel|0> + <0|del|b> * <b|delr+rdel|0>
 Rotatory Strengths (R) in cgs (10**-40 erg-esu-cm/Gauss)
       state          XX          YY          ZZ    R(velocity)    E-M Angle
         1      -102.1942    219.3407    -31.3494     28.5990       88.15
 1/2[<0|r|b>*<b|rxdel|0> + (<0|rxdel|b>*<b|r|0>)*]
 Rotatory Strengths (R) in cgs (10**-40 erg-esu-cm/Gauss)
       state          XX          YY          ZZ     R(length)
         1      1209.7850  -1047.9088    -52.4716     36.4682
  1/2[<0|del|b>*<b|r|0> + (<0|r|b>*<b|del|0>)*] (Au)
       state          X           Y           Z        Dip. S.   Osc.(frdel)
         1        -0.5670     -0.1812     -0.0043      0.7524      0.5016

 Excitation energies and oscillator strengths:
 
 Excited state symmetry could not be determined.
 Excited State   1:      Singlet-?Sym    4.1428 eV  299.28 nm  f=0.5028  <S**2>=0.000
      48 -> 52         0.11643
      51 -> 52         0.66649
 This state for optimization and/or second-order correction.
 Total Energy, E(TD-HF/TD-KS) =  -631.999802436    
 Copying the excited state density for this state as the 1-particle RhoCI density.
 SavETr:  write IOETrn=   770 NScale= 10 NData=  16 NLR=1 NState=    1 LETran=      28.

 **********************************************************************

            Population analysis using the SCF density.

 **********************************************************************

 Alpha  occ. eigenvalues --  -19.24740 -19.21944 -14.49366 -10.37086 -10.34831
 Alpha  occ. eigenvalues --  -10.34781 -10.34186 -10.33900 -10.29312 -10.29059
 Alpha  occ. eigenvalues --  -10.28941 -10.27827 -10.27597 -10.27275  -1.15742
 Alpha  occ. eigenvalues --   -1.12120  -1.09254  -0.95525  -0.89468  -0.86138
 Alpha  occ. eigenvalues --   -0.85528  -0.83588  -0.80389  -0.73532  -0.70035
 Alpha  occ. eigenvalues --   -0.68702  -0.65203  -0.63189  -0.60196  -0.59037
 Alpha  occ. eigenvalues --   -0.58877  -0.58123  -0.55180  -0.53191  -0.52143
 Alpha  occ. eigenvalues --   -0.51803  -0.51353  -0.51125  -0.50518  -0.49745
 Alpha  occ. eigenvalues --   -0.46917  -0.46693  -0.46381  -0.45214  -0.42095
 Alpha  occ. eigenvalues --   -0.42018  -0.41885  -0.33601  -0.33284  -0.30019
 Alpha  occ. eigenvalues --   -0.28669
 Alpha virt. eigenvalues --    0.00391   0.02614   0.04133   0.04961   0.05657
 Alpha virt. eigenvalues --    0.05871   0.06149   0.06517   0.07623   0.07968
 Alpha virt. eigenvalues --    0.08065   0.08262   0.08464   0.10048   0.10362
 Alpha virt. eigenvalues --    0.11601   0.12049   0.12804   0.13005   0.13710
 Alpha virt. eigenvalues --    0.14008   0.14631   0.14940   0.15232   0.15888
 Alpha virt. eigenvalues --    0.16305   0.16411   0.16575   0.16972   0.17415
 Alpha virt. eigenvalues --    0.17666   0.17941   0.18315   0.18839   0.19161
 Alpha virt. eigenvalues --    0.19641   0.20061   0.20327   0.20770   0.21417
 Alpha virt. eigenvalues --    0.21816   0.22112   0.22381   0.23051   0.23436
 Alpha virt. eigenvalues --    0.23834   0.24288   0.24586   0.25555   0.25726
 Alpha virt. eigenvalues --    0.26146   0.26644   0.26841   0.27521   0.28045
 Alpha virt. eigenvalues --    0.28119   0.28488   0.29263   0.29493   0.30172
 Alpha virt. eigenvalues --    0.30602   0.31023   0.31817   0.32245   0.32927
 Alpha virt. eigenvalues --    0.33556   0.33854   0.34640   0.34938   0.35439
 Alpha virt. eigenvalues --    0.36065   0.36986   0.37290   0.37678   0.38143
 Alpha virt. eigenvalues --    0.38464   0.38521   0.38978   0.40194   0.40404
 Alpha virt. eigenvalues --    0.40857   0.41473   0.41961   0.42502   0.43234
 Alpha virt. eigenvalues --    0.44161   0.44961   0.45665   0.46567   0.47415
 Alpha virt. eigenvalues --    0.48252   0.50398   0.51187   0.51958   0.52310
 Alpha virt. eigenvalues --    0.52920   0.55023   0.56882   0.57738   0.60059
 Alpha virt. eigenvalues --    0.61134   0.62718   0.62976   0.63218   0.64225
 Alpha virt. eigenvalues --    0.64690   0.65316   0.65943   0.66982   0.67075
 Alpha virt. eigenvalues --    0.67891   0.69111   0.69456   0.70378   0.70548
 Alpha virt. eigenvalues --    0.70802   0.70988   0.71633   0.72189   0.74537
 Alpha virt. eigenvalues --    0.74987   0.75636   0.75776   0.77384   0.78213
 Alpha virt. eigenvalues --    0.79016   0.80045   0.80646   0.80799   0.82893
 Alpha virt. eigenvalues --    0.83585   0.85691   0.86619   0.86804   0.87844
 Alpha virt. eigenvalues --    0.89375   0.91278   0.93920   0.94387   0.94769
 Alpha virt. eigenvalues --    0.95895   0.96199   0.97794   0.98621   0.98951
 Alpha virt. eigenvalues --    0.99645   1.01219   1.02974   1.03879   1.04663
 Alpha virt. eigenvalues --    1.06344   1.07887   1.08570   1.09723   1.10566
 Alpha virt. eigenvalues --    1.13041   1.13859   1.14092   1.15005   1.15967
 Alpha virt. eigenvalues --    1.17848   1.18710   1.19719   1.20521   1.21054
 Alpha virt. eigenvalues --    1.22724   1.24591   1.28350   1.32119   1.33282
 Alpha virt. eigenvalues --    1.34220   1.34922   1.36556   1.38250   1.40614
 Alpha virt. eigenvalues --    1.42679   1.44627   1.47308   1.50555   1.51148
 Alpha virt. eigenvalues --    1.51456   1.54948   1.55862   1.57319   1.58995
 Alpha virt. eigenvalues --    1.60009   1.61069   1.62111   1.62969   1.64022
 Alpha virt. eigenvalues --    1.65256   1.65620   1.66191   1.66957   1.67458
 Alpha virt. eigenvalues --    1.70380   1.72129   1.73123   1.73658   1.75448
 Alpha virt. eigenvalues --    1.75824   1.76967   1.77803   1.80699   1.81634
 Alpha virt. eigenvalues --    1.82494   1.82931   1.83705   1.84200   1.86090
 Alpha virt. eigenvalues --    1.87801   1.89924   1.91495   1.91877   1.95764
 Alpha virt. eigenvalues --    1.98875   2.00145   2.01156   2.02278   2.02973
 Alpha virt. eigenvalues --    2.03214   2.04896   2.05454   2.06209   2.06804
 Alpha virt. eigenvalues --    2.08740   2.10201   2.11527   2.12260   2.14700
 Alpha virt. eigenvalues --    2.15978   2.17808   2.20125   2.21694   2.24050
 Alpha virt. eigenvalues --    2.25142   2.26624   2.31124   2.32172   2.36124
 Alpha virt. eigenvalues --    2.38340   2.40260   2.43261   2.45964   2.47015
 Alpha virt. eigenvalues --    2.48704   2.50499   2.52584   2.55047   2.55605
 Alpha virt. eigenvalues --    2.57646   2.58154   2.59532   2.62245   2.62683
 Alpha virt. eigenvalues --    2.63656   2.67120   2.69519   2.71197   2.72035
 Alpha virt. eigenvalues --    2.75008   2.75671   2.77272   2.80179   2.80955
 Alpha virt. eigenvalues --    2.82192   2.82819   2.84145   2.84717   2.86272
 Alpha virt. eigenvalues --    2.86739   2.87346   2.89215   2.90741   2.91753
 Alpha virt. eigenvalues --    2.92440   2.95157   2.95834   2.96241   2.99370
 Alpha virt. eigenvalues --    2.99504   3.03016   3.05392   3.08455   3.11962
 Alpha virt. eigenvalues --    3.14408   3.17724   3.19950   3.23082   3.23608
 Alpha virt. eigenvalues --    3.26389   3.27248   3.30449   3.31837   3.32507
 Alpha virt. eigenvalues --    3.38471   3.43179   3.47536   3.51487   3.56481
 Alpha virt. eigenvalues --    3.61613   3.63600   3.65147   3.68448   3.70251
 Alpha virt. eigenvalues --    3.72572   3.75484   3.80728   3.81884   3.82710
 Alpha virt. eigenvalues --    3.85400   3.89848   3.93001   3.94339   4.04348
 Alpha virt. eigenvalues --    4.09237   4.13145   4.15315   4.18615   4.29659
 Alpha virt. eigenvalues --    4.30954   4.40499   4.64195   4.95373   4.97961
 Alpha virt. eigenvalues --    5.14990   5.18148   5.19539   5.42527   5.63684
 Alpha virt. eigenvalues --    5.89991   5.95131  23.73817  23.95223  24.04173
 Alpha virt. eigenvalues --   24.05306  24.06663  24.07600  24.10052  24.17839
 Alpha virt. eigenvalues --   24.25555  24.28202  24.34376  35.70836  50.14375
 Alpha virt. eigenvalues --   50.20040
          Condensed to atoms (all electrons):
               1          2          3          4          5          6
     1  C   27.294213  -7.027848  -1.726261  -1.212051 -11.162280  -0.056883
     2  C   -7.027848  22.351852  -0.108762  -1.288403   1.565041   0.739394
     3  C   -1.726261  -0.108762  20.554235  -7.082565  -2.793109  -0.083522
     4  C   -1.212051  -1.288403  -7.082565  17.673290  -0.687194  -0.267445
     5  C  -11.162280   1.565041  -2.793109  -0.687194  26.316472  -0.426135
     6  O   -0.056883   0.739394  -0.083522  -0.267445  -0.426135   8.158589
     7  C    0.987924  -5.014823  -3.596852   3.957571  -1.208615  -0.071321
     8  O    0.162724  -0.114640   0.417505  -0.032814  -0.054756   0.006210
     9  H   -0.156286   0.031522   0.042035   0.037861   0.000011   0.063343
    10  C   -4.426653   2.323592   1.896117  -2.091533   0.522499  -0.008385
    11  H   -0.067136   0.018661  -0.069531   0.821595  -0.205215  -0.004567
    12  C    2.247512  -5.534093  -1.406110  -1.512801  -6.263261   0.298389
    13  H   -0.269675  -0.081259   0.087297  -0.234556   0.925541  -0.006141
    14  C   -0.417601  -0.218465  -0.210665  -0.527149  -0.397154  -0.026290
    15  H   -0.049343  -0.049372  -0.143963   0.047344  -0.004492   0.001003
    16  H    0.022077   0.004915   0.051763  -0.118461   0.007351   0.000837
    17  H   -0.066367   0.072460  -0.062903   0.037596   0.066665   0.010786
    18  N    0.020108  -0.039898   0.001479  -0.011915  -0.355771   0.004959
    19  H    0.080291   0.008423   0.031752  -0.057073  -0.006568  -0.000420
    20  C   -0.298602  -0.404791  -0.030586  -0.008634   0.608969  -0.002282
    21  C    0.025669  -0.179804  -0.003564  -0.016382  -0.177565   0.002083
    22  H    0.004854   0.001617  -0.002636  -0.000957  -0.108144   0.000666
    23  H   -0.006742  -0.027652  -0.000296  -0.004428   0.019305   0.000065
    24  H    0.004171   0.006061  -0.001784   0.006617   0.025261   0.000100
    25  H    0.020236   0.030613   0.004603  -0.004411  -0.034211   0.001247
    26  H   -0.004217  -0.009246  -0.000707   0.000982   0.054775  -0.000141
    27  H   -0.001827   0.001295  -0.000204   0.000959   0.023743  -0.000005
               7          8          9         10         11         12
     1  C    0.987924   0.162724  -0.156286  -4.426653  -0.067136   2.247512
     2  C   -5.014823  -0.114640   0.031522   2.323592   0.018661  -5.534093
     3  C   -3.596852   0.417505   0.042035   1.896117  -0.069531  -1.406110
     4  C    3.957571  -0.032814   0.037861  -2.091533   0.821595  -1.512801
     5  C   -1.208615  -0.054756   0.000011   0.522499  -0.205215  -6.263261
     6  O   -0.071321   0.006210   0.063343  -0.008385  -0.004567   0.298389
     7  C   12.379438  -0.431958   0.076683  -1.851830   0.101219   0.171637
     8  O   -0.431958   8.078355   0.254033   0.004645  -0.001930   0.028376
     9  H    0.076683   0.254033   0.321108   0.010147   0.001887  -0.043652
    10  C   -1.851830   0.004645   0.010147   9.900537  -0.111348  -0.590225
    11  H    0.101219  -0.001930   0.001887  -0.111348   0.618752  -0.122691
    12  C    0.171637   0.028376  -0.043652  -0.590225  -0.122691  17.931064
    13  H   -0.030014  -0.002274  -0.000907  -0.029073  -0.057117  -0.125699
    14  C    0.531077   0.011222   0.000122   0.783825   0.029512  -0.218120
    15  H    0.590905  -0.025512   0.001283  -0.014953   0.000197   0.002919
    16  H   -0.002867   0.000243   0.000261   0.411599  -0.023903   0.006511
    17  H   -0.003774   0.000245  -0.000702   0.003177   0.001289   0.329786
    18  N    0.002070  -0.000116   0.000016  -0.005311  -0.005786   0.312743
    19  H   -0.110183   0.000726  -0.000388  -0.058401   0.001762  -0.002248
    20  C   -0.005902  -0.000114  -0.001119   0.021053  -0.003168  -0.157081
    21  C   -0.000738   0.000322  -0.000170   0.001018  -0.002141   0.028975
    22  H   -0.000291   0.000071   0.000014  -0.001875  -0.000576   0.086713
    23  H    0.000054  -0.000004  -0.000096  -0.000025   0.000164   0.032640
    24  H    0.000184   0.000031   0.000058   0.000404  -0.001682  -0.046740
    25  H    0.000876  -0.000031   0.000103  -0.001228   0.000447   0.065222
    26  H   -0.000066  -0.000002   0.000004   0.000200   0.000135  -0.064202
    27  H   -0.000197   0.000008   0.000041   0.000432  -0.000271  -0.023339
              13         14         15         16         17         18
     1  C   -0.269675  -0.417601  -0.049343   0.022077  -0.066367   0.020108
     2  C   -0.081259  -0.218465  -0.049372   0.004915   0.072460  -0.039898
     3  C    0.087297  -0.210665  -0.143963   0.051763  -0.062903   0.001479
     4  C   -0.234556  -0.527149   0.047344  -0.118461   0.037596  -0.011915
     5  C    0.925541  -0.397154  -0.004492   0.007351   0.066665  -0.355771
     6  O   -0.006141  -0.026290   0.001003   0.000837   0.010786   0.004959
     7  C   -0.030014   0.531077   0.590905  -0.002867  -0.003774   0.002070
     8  O   -0.002274   0.011222  -0.025512   0.000243   0.000245  -0.000116
     9  H   -0.000907   0.000122   0.001283   0.000261  -0.000702   0.000016
    10  C   -0.029073   0.783825  -0.014953   0.411599   0.003177  -0.005311
    11  H   -0.057117   0.029512   0.000197  -0.023903   0.001289  -0.005786
    12  C   -0.125699  -0.218120   0.002919   0.006511   0.329786   0.312743
    13  H    0.738287  -0.010757   0.000417   0.005264   0.001498  -0.031156
    14  C   -0.010757   6.591312  -0.041061  -0.059040  -0.001024  -0.000321
    15  H    0.000417  -0.041061   0.468044   0.001204  -0.000211   0.000010
    16  H    0.005264  -0.059040   0.001204   0.487374  -0.000137   0.000134
    17  H    0.001498  -0.001024  -0.000211  -0.000137   0.472794  -0.066843
    18  N   -0.031156  -0.000321   0.000010   0.000134  -0.066843   6.851198
    19  H   -0.001174   0.445425  -0.012268  -0.010845   0.000018  -0.000013
    20  C    0.031224  -0.003751   0.000008  -0.000056   0.009914   0.241501
    21  C   -0.008443  -0.000746   0.000018   0.000117  -0.029090   0.282888
    22  H   -0.005276   0.000381  -0.000021  -0.000142   0.002801  -0.040242
    23  H   -0.000412  -0.000227   0.000002  -0.000017  -0.000392  -0.048579
    24  H   -0.002822   0.000368  -0.000006   0.000063  -0.002544  -0.049183
    25  H   -0.002777   0.000006   0.000006  -0.000006  -0.010061  -0.090025
    26  H   -0.000210  -0.000018   0.000000   0.000000   0.004367  -0.046590
    27  H    0.002149   0.000025   0.000000   0.000006   0.001520  -0.049027
              19         20         21         22         23         24
     1  C    0.080291  -0.298602   0.025669   0.004854  -0.006742   0.004171
     2  C    0.008423  -0.404791  -0.179804   0.001617  -0.027652   0.006061
     3  C    0.031752  -0.030586  -0.003564  -0.002636  -0.000296  -0.001784
     4  C   -0.057073  -0.008634  -0.016382  -0.000957  -0.004428   0.006617
     5  C   -0.006568   0.608969  -0.177565  -0.108144   0.019305   0.025261
     6  O   -0.000420  -0.002282   0.002083   0.000666   0.000065   0.000100
     7  C   -0.110183  -0.005902  -0.000738  -0.000291   0.000054   0.000184
     8  O    0.000726  -0.000114   0.000322   0.000071  -0.000004   0.000031
     9  H   -0.000388  -0.001119  -0.000170   0.000014  -0.000096   0.000058
    10  C   -0.058401   0.021053   0.001018  -0.001875  -0.000025   0.000404
    11  H    0.001762  -0.003168  -0.002141  -0.000576   0.000164  -0.001682
    12  C   -0.002248  -0.157081   0.028975   0.086713   0.032640  -0.046740
    13  H   -0.001174   0.031224  -0.008443  -0.005276  -0.000412  -0.002822
    14  C    0.445425  -0.003751  -0.000746   0.000381  -0.000227   0.000368
    15  H   -0.012268   0.000008   0.000018  -0.000021   0.000002  -0.000006
    16  H   -0.010845  -0.000056   0.000117  -0.000142  -0.000017   0.000063
    17  H    0.000018   0.009914  -0.029090   0.002801  -0.000392  -0.002544
    18  N   -0.000013   0.241501   0.282888  -0.040242  -0.048579  -0.049183
    19  H    0.489446  -0.000086  -0.000003   0.000032  -0.000005   0.000004
    20  C   -0.000086   5.285722  -0.056891   0.410127   0.387428   0.419621
    21  C   -0.000003  -0.056891   5.215644   0.004442   0.010916  -0.004823
    22  H    0.000032   0.410127   0.004442   0.535238  -0.018337  -0.050852
    23  H   -0.000005   0.387428   0.010916  -0.018337   0.489174  -0.021834
    24  H    0.000004   0.419621  -0.004823  -0.050852  -0.021834   0.519026
    25  H    0.000000  -0.007739   0.400810  -0.001633   0.002939  -0.001521
    26  H    0.000000   0.018755   0.400401   0.001626  -0.007073   0.000232
    27  H    0.000000  -0.011304   0.408582  -0.002103  -0.003854   0.003267
              25         26         27
     1  C    0.020236  -0.004217  -0.001827
     2  C    0.030613  -0.009246   0.001295
     3  C    0.004603  -0.000707  -0.000204
     4  C   -0.004411   0.000982   0.000959
     5  C   -0.034211   0.054775   0.023743
     6  O    0.001247  -0.000141  -0.000005
     7  C    0.000876  -0.000066  -0.000197
     8  O   -0.000031  -0.000002   0.000008
     9  H    0.000103   0.000004   0.000041
    10  C   -0.001228   0.000200   0.000432
    11  H    0.000447   0.000135  -0.000271
    12  C    0.065222  -0.064202  -0.023339
    13  H   -0.002777  -0.000210   0.002149
    14  C    0.000006  -0.000018   0.000025
    15  H    0.000006   0.000000   0.000000
    16  H   -0.000006   0.000000   0.000006
    17  H   -0.010061   0.004367   0.001520
    18  N   -0.090025  -0.046590  -0.049027
    19  H    0.000000   0.000000   0.000000
    20  C   -0.007739   0.018755  -0.011304
    21  C    0.400810   0.400401   0.408582
    22  H   -0.001633   0.001626  -0.002103
    23  H    0.002939  -0.007073  -0.003854
    24  H   -0.001521   0.000232   0.003267
    25  H    0.530480  -0.030532  -0.023958
    26  H   -0.030532   0.560674  -0.063123
    27  H   -0.023958  -0.063123   0.556754
 Mulliken charges:
               1
     1  C    2.079994
     2  C   -1.056394
     3  C    0.237234
     4  C   -1.425043
     5  C   -0.251165
     6  O   -0.334132
     7  C   -0.470207
     8  O   -0.300568
     9  H    0.362788
    10  C   -0.688408
    11  H    0.081439
    12  C    0.567775
    13  H    0.108062
    14  C   -0.260886
    15  H    0.227840
    16  H    0.215754
    17  H    0.229133
    18  N    0.123672
    19  H    0.201796
    20  C   -0.442218
    21  C   -0.301526
    22  H    0.184501
    23  H    0.197288
    24  H    0.198321
    25  H    0.150542
    26  H    0.183976
    27  H    0.180433
 Sum of Mulliken charges =   0.00000
 Mulliken charges with hydrogens summed into heavy atoms:
               1
     1  C    2.079994
     2  C   -1.056394
     3  C    0.237234
     4  C   -1.343604
     5  C   -0.143103
     6  O   -0.334132
     7  C   -0.242367
     8  O    0.062221
    10  C   -0.472654
    12  C    0.796908
    14  C   -0.059090
    18  N    0.123672
    20  C    0.137891
    21  C    0.213424
 Electronic spatial extent (au):  <R**2>=           6879.0376
 Charge=              0.0000 electrons
 Dipole moment (field-independent basis, Debye):
    X=             -5.0763    Y=             -3.9713    Z=             -3.3029  Tot=              7.2422
 Quadrupole moment (field-independent basis, Debye-Ang):
   XX=            -74.2307   YY=            -97.4162   ZZ=            -72.9489
   XY=             -3.9038   XZ=              0.5917   YZ=              0.4012
 Traceless Quadrupole moment (field-independent basis, Debye-Ang):
   XX=              7.3012   YY=            -15.8843   ZZ=              8.5830
   XY=             -3.9038   XZ=              0.5917   YZ=              0.4012
 Octapole moment (field-independent basis, Debye-Ang**2):
  XXX=           -328.9434  YYY=           -522.3592  ZZZ=            411.7446  XYY=           -124.7258
  XXY=           -146.7976  XXZ=            106.7305  XZZ=           -104.6099  YZZ=           -163.3230
  YYZ=            154.5630  XYZ=            -16.8155
 Hexadecapole moment (field-independent basis, Debye-Ang**3):
 XXXX=          -4068.0111 YYYY=          -2963.9108 ZZZZ=          -2228.6651 XXXY=          -1215.2223
 XXXZ=            567.1056 YYYX=          -1467.6515 YYYZ=            765.1877 ZZZX=            666.7032
 ZZZY=            768.8404 XXYY=          -1143.8991 XXZZ=           -980.6679 YYZZ=           -900.9522
 XXYZ=            144.0392 YYXZ=            197.8561 ZZXY=           -434.3550
 N-N= 8.384490054765D+02 E-N=-3.150801649194D+03  KE= 6.296445972186D+02
 1\1\GINC-NXV34\SP\RwB97XD TD-FC\6-311++G(d,p)\C11H13N1O2\CA12053\18-Se
 p-2017\0\\# wb97xd 6-311++g** td=(root=1,nstates=1) nosymm\\Monomer Ex
 citation H2\\0,1\C,0,2.462405,2.375572,-1.800125\C,0,1.159578,2.01336,
 -1.173465\C,0,3.313492,3.292147,-1.139962\C,0,2.888558,1.852738,-3.030
 336\C,0,0.201041,1.230789,-1.905309\O,0,0.921875,2.418525,-0.014927\C,
 0,4.525267,3.671279,-1.72941\O,0,3.007768,3.827443,0.046358\H,0,2.1331
 75,3.438542,0.300185\C,0,4.092137,2.216912,-3.601796\H,0,2.264076,1.13
 8734,-3.552176\C,0,-1.000959,0.947165,-1.313357\H,0,0.407522,0.922738,
 -2.918369\C,0,4.908207,3.139107,-2.943634\H,0,5.144495,4.388729,-1.203
 865\H,0,4.39438,1.795305,-4.552644\H,0,-1.151386,1.289612,-0.293372\N,
 0,-2.02894,0.304394,-1.865188\H,0,5.84976,3.443398,-3.387932\C,0,-1.92
 2537,-0.234483,-3.207129\C,0,-3.22645,-0.008097,-1.105437\H,0,-1.64593
 5,0.552887,-3.915959\H,0,-2.8866,-0.644443,-3.507159\H,0,-1.172147,-1.
 03141,-3.245282\H,0,-3.167451,0.461706,-0.124087\H,0,-3.327256,-1.0881
 56,-0.968495\H,0,-4.111155,0.375575,-1.623476\\Version=ES64L-G09RevD.0
 1\HF=-632.1520473\RMSD=8.654e-09\PG=C01 [X(C11H13N1O2)]\\@


 "WHERE SHALL I START, PLEASE YOUR MAJESTY?" HE ASKED.
 "BEGIN AT THE BEGINNING," THE KING SAID GRAVELY,
 "AND GO ON TILL YOU COME TO THE END: THEN STOP." 

                                      -- LEWIS CARROLL
 Job cpu time:       0 days  0 hours 58 minutes 34.0 seconds.
 File lengths (MBytes):  RWF=    156 Int=      0 D2E=      0 Chk=     15 Scr=      1
 Normal termination of Gaussian 09 at Mon Sep 18 15:11:20 2017.
