 Entering Gaussian System, Link 0=g09
 Input=J2_HP_Mon.com
 Output=J2_HP_Mon.out
 Initial command:
 /share/apps/gaussian/g09_D01/g09/l1.exe "/tmp/135107.1.all.q/Gau-18965.inp" -scrdir="/tmp/135107.1.all.q/"
 Entering Link 1 = /share/apps/gaussian/g09_D01/g09/l1.exe PID=     18969.
  
 Copyright (c) 1988,1990,1992,1993,1995,1998,2003,2009,2013,
            Gaussian, Inc.  All Rights Reserved.
  
 This is part of the Gaussian(R) 09 program.  It is based on
 the Gaussian(R) 03 system (copyright 2003, Gaussian, Inc.),
 the Gaussian(R) 98 system (copyright 1998, Gaussian, Inc.),
 the Gaussian(R) 94 system (copyright 1995, Gaussian, Inc.),
 the Gaussian 92(TM) system (copyright 1992, Gaussian, Inc.),
 the Gaussian 90(TM) system (copyright 1990, Gaussian, Inc.),
 the Gaussian 88(TM) system (copyright 1988, Gaussian, Inc.),
 the Gaussian 86(TM) system (copyright 1986, Carnegie Mellon
 University), and the Gaussian 82(TM) system (copyright 1983,
 Carnegie Mellon University). Gaussian is a federally registered
 trademark of Gaussian, Inc.
  
 This software contains proprietary and confidential information,
 including trade secrets, belonging to Gaussian, Inc.
  
 This software is provided under written license and may be
 used, copied, transmitted, or stored only in accord with that
 written license.
  
 The following legend is applicable only to US Government
 contracts under FAR:
  
                    RESTRICTED RIGHTS LEGEND
  
 Use, reproduction and disclosure by the US Government is
 subject to restrictions as set forth in subparagraphs (a)
 and (c) of the Commercial Computer Software - Restricted
 Rights clause in FAR 52.227-19.
  
 Gaussian, Inc.
 340 Quinnipiac St., Bldg. 40, Wallingford CT 06492
  
  
 ---------------------------------------------------------------
 Warning -- This program may not be used in any manner that
 competes with the business of Gaussian, Inc. or will provide
 assistance to any competitor of Gaussian, Inc.  The licensee
 of this program is prohibited from giving any competitor of
 Gaussian, Inc. access to this program.  By using this program,
 the user acknowledges that Gaussian, Inc. is engaged in the
 business of creating and licensing software in the field of
 computational chemistry and represents and warrants to the
 licensee that it is not a competitor of Gaussian, Inc. and that
 it will not use this program in any manner prohibited above.
 ---------------------------------------------------------------
  

 Cite this work as:
 Gaussian 09, Revision D.01,
 M. J. Frisch, G. W. Trucks, H. B. Schlegel, G. E. Scuseria, 
 M. A. Robb, J. R. Cheeseman, G. Scalmani, V. Barone, B. Mennucci, 
 G. A. Petersson, H. Nakatsuji, M. Caricato, X. Li, H. P. Hratchian, 
 A. F. Izmaylov, J. Bloino, G. Zheng, J. L. Sonnenberg, M. Hada, 
 M. Ehara, K. Toyota, R. Fukuda, J. Hasegawa, M. Ishida, T. Nakajima, 
 Y. Honda, O. Kitao, H. Nakai, T. Vreven, J. A. Montgomery, Jr., 
 J. E. Peralta, F. Ogliaro, M. Bearpark, J. J. Heyd, E. Brothers, 
 K. N. Kudin, V. N. Staroverov, T. Keith, R. Kobayashi, J. Normand, 
 K. Raghavachari, A. Rendell, J. C. Burant, S. S. Iyengar, J. Tomasi, 
 M. Cossi, N. Rega, J. M. Millam, M. Klene, J. E. Knox, J. B. Cross, 
 V. Bakken, C. Adamo, J. Jaramillo, R. Gomperts, R. E. Stratmann, 
 O. Yazyev, A. J. Austin, R. Cammi, C. Pomelli, J. W. Ochterski, 
 R. L. Martin, K. Morokuma, V. G. Zakrzewski, G. A. Voth, 
 P. Salvador, J. J. Dannenberg, S. Dapprich, A. D. Daniels, 
 O. Farkas, J. B. Foresman, J. V. Ortiz, J. Cioslowski, 
 and D. J. Fox, Gaussian, Inc., Wallingford CT, 2013.
 
 ******************************************
 Gaussian 09:  ES64L-G09RevD.01 24-Apr-2013
                18-Sep-2017 
 ******************************************
 %chk=HP_Mon_J_2.chk
 %mem=2GB
 %nproc=4
 Will use up to    4 processors via shared memory.
 --------------------------------------------------
 # wb97xd 6-311++g** td=(singlets,nstates=1) nosymm
 --------------------------------------------------
 1/38=1/1;
 2/12=2,15=1,17=6,18=5,40=1/2;
 3/5=4,6=6,7=1111,11=9,16=1,25=1,30=1,74=-58/1,2,8,3;
 4//1;
 5/5=2,38=5/2;
 8/6=1,10=2,108=1/1;
 9/41=1,42=1,48=1,70=2/14;
 6/7=2,8=2,9=2,10=2/1;
 99/5=1,9=1/99;
 ---------------------
 Monomer Excitation J2
 ---------------------
 Symbolic Z-matrix:
 Charge =  0 Multiplicity = 1
 C                     0.17234  -0.18762  -2.51328 
 C                    -1.15928  -0.53096  -1.94825 
 C                     0.99932   0.72607  -1.82048 
 C                     0.65854  -0.73551  -3.71016 
 C                    -2.06438  -1.38964  -2.68121 
 O                    -1.48429  -0.05968  -0.83982 
 C                     2.25842   1.06002  -2.32914 
 O                     0.62198   1.29957  -0.67156 
 H                    -0.2517    0.89236  -0.44172 
 C                     1.90177  -0.40363  -4.21159 
 H                     0.05376  -1.44594  -4.25963 
 C                    -3.25377  -1.71058  -2.09847 
 H                    -1.80486  -1.75376  -3.6639 
 C                     2.70253   0.49996  -3.51011 
 H                     2.86775   1.75876  -1.76765 
 H                     2.25337  -0.84639  -5.1358 
 H                    -3.44108  -1.31937  -1.10227 
 N                    -4.23403  -2.45767  -2.62366 
 H                     3.68338   0.76165  -3.89199 
 C                    -4.09694  -3.01507  -3.95499 
 C                    -5.44271  -2.75454  -1.87898 
 H                    -3.91279  -2.22264  -4.68862 
 H                    -5.01844  -3.52893  -4.22576 
 H                    -3.26886  -3.73162  -3.99826 
 H                    -5.39347  -2.27717  -0.90007 
 H                    -5.55699  -3.83324  -1.73273 
 H                    -6.32555  -2.37534  -2.40482 
 
                          Input orientation:                          
 ---------------------------------------------------------------------
 Center     Atomic      Atomic             Coordinates (Angstroms)
 Number     Number       Type             X           Y           Z
 ---------------------------------------------------------------------
      1          6           0        0.172341   -0.187617   -2.513281
      2          6           0       -1.159280   -0.530958   -1.948253
      3          6           0        0.999324    0.726072   -1.820478
      4          6           0        0.658540   -0.735505   -3.710156
      5          6           0       -2.064376   -1.389635   -2.681212
      6          8           0       -1.484290   -0.059676   -0.839821
      7          6           0        2.258423    1.060020   -2.329142
      8          8           0        0.621977    1.299573   -0.671555
      9          1           0       -0.251704    0.892357   -0.441721
     10          6           0        1.901769   -0.403627   -4.211587
     11          1           0        0.053759   -1.445943   -4.259628
     12          6           0       -3.253773   -1.710577   -2.098465
     13          1           0       -1.804856   -1.753759   -3.663895
     14          6           0        2.702534    0.499963   -3.510111
     15          1           0        2.867752    1.758760   -1.767654
     16          1           0        2.253370   -0.846389   -5.135799
     17          1           0       -3.441076   -1.319371   -1.102273
     18          7           0       -4.234034   -2.457669   -2.623664
     19          1           0        3.683379    0.761646   -3.891993
     20          6           0       -4.096938   -3.015073   -3.954991
     21          6           0       -5.442712   -2.754541   -1.878978
     22          1           0       -3.912790   -2.222641   -4.688619
     23          1           0       -5.018438   -3.528928   -4.225763
     24          1           0       -3.268862   -3.731619   -3.998260
     25          1           0       -5.393468   -2.277174   -0.900074
     26          1           0       -5.556990   -3.833238   -1.732732
     27          1           0       -6.325552   -2.375343   -2.404822
 ---------------------------------------------------------------------
                    Distance matrix (angstroms):
                    1          2          3          4          5
     1  C    0.000000
     2  C    1.486726   0.000000
     3  C    1.413755   2.501204   0.000000
     4  C    1.403239   2.539805   2.413136   0.000000
     5  C    2.544789   1.446981   3.821431   2.983435   0.000000
     6  O    2.358233   1.247541   2.783420   3.645173   2.344357
     7  C    2.437672   3.789061   1.398424   2.773218   4.981100
     8  O    2.409535   2.855465   1.338401   3.657318   4.299657
     9  H    2.374346   2.262556   1.869142   3.763130   3.675403
    10  C    2.433480   3.809057   2.794285   1.381012   4.364008
    11  H    2.155730   2.766065   3.400176   1.082775   2.642170
    12  C    3.772232   2.408519   4.909518   4.342178   1.362814
    13  H    2.772367   2.203506   4.172670   2.665952   1.079631
    14  C    2.805051   4.291364   2.409753   2.396729   5.194332
    15  H    3.407284   4.635991   2.135476   3.856850   5.922235
    16  H    3.412076   4.680398   3.877708   2.142017   4.996303
    17  H    4.040865   2.558099   4.941337   4.893752   2.096017
    18  N    4.957969   3.690868   6.178135   5.299396   2.418972
    19  H    3.889645   5.375900   3.390662   3.379967   6.255453
    20  C    5.319754   4.339085   6.672646   5.279294   2.897563
    21  C    6.206469   4.826687   7.322426   6.682439   3.730912
    22  H    5.055859   4.237123   6.407028   4.905713   2.853106
    23  H    6.406336   5.391473   7.752669   6.348003   3.960896
    24  H    5.158196   4.347079   6.544552   4.948150   2.944536
    25  H    6.160107   4.698542   7.122810   6.848365   3.878535
    26  H    6.835572   5.503758   7.986254   7.220732   4.366825
    27  H    6.857151   5.504596   7.975841   7.291811   4.382423
                    6          7          8          9         10
     6  O    0.000000
     7  C    4.180873   0.000000
     8  O    2.512416   2.341567   0.000000
     9  H    1.607519   3.145029   0.990942   0.000000
    10  C    4.790877   2.411030   4.131656   4.530884   0.000000
    11  H    3.997801   3.855797   4.553570   4.487468   2.122233
    12  C    2.727770   6.173631   5.110627   4.304937   5.723025
    13  H    3.308787   5.119488   4.915939   4.449339   3.982699
    14  C    4.997313   1.380430   3.609085   4.277442   1.396341
    15  H    4.807063   1.083876   2.540825   3.498537   3.403212
    16  H    5.748430   3.392896   5.214985   5.597589   1.083434
    17  H    2.341949   6.296904   4.853121   3.937025   6.249193
    18  N    4.061226   7.390053   6.442704   5.642916   6.662482
    19  H    6.057650   2.135891   4.475798   5.235107   2.152704
    20  C    5.026389   7.722719   7.187856   6.511290   6.547517
    21  C    4.900127   8.605870   7.394198   6.504778   8.056628
    22  H    5.038777   7.377457   7.007632   6.414274   6.111094
    23  H    5.999210   8.809559   8.231713   7.522532   7.593219
    24  H    5.161744   7.503109   7.177638   6.567600   6.152761
    25  H    4.494730   8.469388   7.002208   6.057537   8.227805
    26  H    5.623517   9.240149   8.102560   7.221081   8.575549
    27  H    5.590113   9.246192   8.048440   7.171001   8.651062
                   11         12         13         14         15
    11  H    0.000000
    12  C    3.959852   0.000000
    13  H    1.975879   2.133494   0.000000
    14  C    3.371103   6.508212   5.041773   0.000000
    15  H    4.939495   7.044062   6.145469   2.155927   0.000000
    16  H    2.442423   6.348294   4.411238   2.158072   4.302170
    17  H    4.711558   1.086519   3.070475   6.844823   7.051165
    18  N    4.699483   1.339736   2.734680   7.592717   8.303396
    19  H    4.264123   7.579756   6.041524   1.084605   2.484411
    20  C    4.447837   2.420604   2.632354   7.667217   8.722433
    21  C    6.131159   2.435054   4.173906   8.921739   9.457594
    22  H    4.064579   2.721288   2.390250   7.250101   8.388047
    23  H    5.483353   3.308450   3.714031   8.738280   9.807851
    24  H    4.041341   2.773817   2.483353   7.334995   8.530996
    25  H    6.453668   2.517036   4.559694   8.948186   9.235216
    26  H    6.600370   3.153452   4.704480   9.495022  10.111772
    27  H    6.708181   3.157783   4.733743   9.539150  10.100180
                   16         17         18         19         20
    16  H    0.000000
    17  H    6.994266   0.000000
    18  N    7.140970   2.058916   0.000000
    19  H    2.485509   7.929125   8.640491   0.000000
    20  C    6.813509   3.382833   1.449802   8.648752   0.000000
    21  C    8.571908   2.582543   1.450377   9.985056   2.487733
    22  H    6.333685   3.728309   2.102968   8.200144   1.095477
    23  H    7.804061   4.138406   2.080771   9.707834   1.089278
    24  H    6.333529   3.772975   2.108084   8.278549   1.095911
    25  H    8.857914   2.184057   2.085097  10.028717   3.399706
    26  H    9.027949   3.345758   2.106220  10.543234   2.782010
    27  H    9.132023   3.336452   2.104547  10.593917   2.789086
                   21         22         23         24         25
    21  C    0.000000
    22  H    3.243094   0.000000
    23  H    2.507406   1.772873   0.000000
    24  H    3.189304   1.779959   1.775910   0.000000
    25  H    1.090210   4.067979   3.573198   4.028414   0.000000
    26  H    1.094548   3.746289   2.568627   3.221564   1.772398
    27  H    1.095313   3.325728   2.520939   3.704306   1.772762
                   26         27
    26  H    0.000000
    27  H    1.779846   0.000000
 Symmetry turned off by external request.
 Stoichiometry    C11H13NO2
 Framework group  C1[X(C11H13NO2)]
 Deg. of freedom    75
 Full point group                 C1      NOp   1
 Rotational constants (GHZ):      1.6290919      0.3210808      0.2694049
 Standard basis: 6-311++G(d,p) (5D, 7F)
   399 basis functions,   621 primitive gaussians,   413 cartesian basis functions
    51 alpha electrons       51 beta electrons
       nuclear repulsion energy       838.2252881528 Hartrees.
 NAtoms=   27 NActive=   27 NUniq=   27 SFac= 1.00D+00 NAtFMM=   60 NAOKFM=F Big=F
 Integral buffers will be    131072 words long.
 Raffenetti 1 integral format.
 Two-electron integral symmetry is turned off.
 Nuclear repulsion after empirical dispersion term =      838.2103712894 Hartrees.
 One-electron integrals computed using PRISM.
 NBasis=   399 RedAO= T EigKep=  1.80D-06  NBF=   399
 NBsUse=   396 1.00D-06 EigRej=  9.68D-07 NBFU=   396
 ExpMin= 3.60D-02 ExpMax= 8.59D+03 ExpMxC= 1.30D+03 IAcc=3 IRadAn=         5 AccDes= 0.00D+00
 Harris functional with IExCor= 4639 and IRadAn=       5 diagonalized for initial guess.
 HarFok:  IExCor= 4639 AccDes= 0.00D+00 IRadAn=         5 IDoV= 1 UseB2=F ITyADJ=14
 ICtDFT=  3500011 ScaDFX=  1.000000  1.000000  1.000000  1.000000
 FoFCou: FMM=F IPFlag=           0 FMFlag=      100000 FMFlg1=           0
         NFxFlg=           0 DoJE=T BraDBF=F KetDBF=T FulRan=T
         wScrn=  0.000000 ICntrl=     500 IOpCl=  0 I1Cent=   200000004 NGrid=           0
         NMat0=    1 NMatS0=      1 NMatT0=    0 NMatD0=    1 NMtDS0=    0 NMtDT0=    0
 Symmetry not used in FoFCou.
 Requested convergence on RMS density matrix=1.00D-08 within 128 cycles.
 Requested convergence on MAX density matrix=1.00D-06.
 Requested convergence on             energy=1.00D-06.
 No special actions if energy rises.
 SCF Done:  E(RwB97XD) =  -632.152398154     A.U. after   17 cycles
            NFock= 17  Conv=0.41D-08     -V/T= 2.0040
 DoSCS=F DFT=T ScalE2(SS,OS)=  1.000000  1.000000
 ExpMin= 3.60D-02 ExpMax= 8.59D+03 ExpMxC= 1.30D+03 IAcc=3 IRadAn=         5 AccDes= 0.00D+00
 HarFok:  IExCor=  205 AccDes= 0.00D+00 IRadAn=         5 IDoV=-2 UseB2=F ITyADJ=14
 ICtDFT= 12500011 ScaDFX=  1.000000  1.000000  1.000000  1.000000
 Range of M.O.s used for correlation:    15   396
 NBasis=   399 NAE=    51 NBE=    51 NFC=    14 NFV=     0
 NROrb=    382 NOA=    37 NOB=    37 NVA=   345 NVB=   345

 **** Warning!!: The largest alpha MO coefficient is  0.16171056D+03

 Would need an additional         18871500000 words for in-memory AO integral storage.
     8 initial guesses have been made.
 Convergence on wavefunction:    0.001000000000000
 Iteration     1 Dimension     8 NMult     0 NNew      8
 CISAX will form     8 AO SS matrices at one time.
 New state      1 was old state      8
 Iteration     2 Dimension    12 NMult     8 NNew      4
 New state      1 was old state      2
 Iteration     3 Dimension    16 NMult    12 NNew      4
 Iteration     4 Dimension    20 NMult    16 NNew      4
 Iteration     5 Dimension    24 NMult    20 NNew      4
 Iteration     6 Dimension    28 NMult    24 NNew      4
 Iteration     7 Dimension    32 NMult    28 NNew      4
 Iteration     8 Dimension    36 NMult    32 NNew      4
 ***********************************************************************
 Excited states from <AA,BB:AA,BB> singles matrix:
 ***********************************************************************
 
 Ground to excited state transition densities written to RWF  633
 Ground to excited state transition electric dipole moments (Au):
       state          X           Y           Z        Dip. S.      Osc.
         1        -1.9313     -1.1322     -0.2095      5.0556      0.5133
 Ground to excited state transition velocity dipole moments (Au):
       state          X           Y           Z        Dip. S.      Osc.
         1         0.2923      0.1738      0.0356      0.1169      0.5117
 Ground to excited state transition magnetic dipole moments (Au):
       state          X           Y           Z
         1         0.9770     -1.6583      0.2583
 Ground to excited state transition velocity quadrupole moments (Au):
       state          XX          YY          ZZ          XY          XZ          YZ
         1        -1.2519     -0.5039     -0.2451     -0.8113     -1.4734     -0.7832
 <0|del|b> * <b|rxdel|0> + <0|del|b> * <b|delr+rdel|0>
 Rotatory Strengths (R) in cgs (10**-40 erg-esu-cm/Gauss)
       state          XX          YY          ZZ    R(velocity)    E-M Angle
         1      -120.2610    219.8091    -69.2672     10.0936       89.44
 1/2[<0|r|b>*<b|rxdel|0> + (<0|rxdel|b>*<b|r|0>)*]
 Rotatory Strengths (R) in cgs (10**-40 erg-esu-cm/Gauss)
       state          XX          YY          ZZ     R(length)
         1      1334.3559  -1327.6844     38.2701     14.9806
  1/2[<0|del|b>*<b|r|0> + (<0|r|b>*<b|del|0>)*] (Au)
       state          X           Y           Z        Dip. S.   Osc.(frdel)
         1        -0.5644     -0.1968     -0.0075      0.7687      0.5124

 Excitation energies and oscillator strengths:
 
 Excited state symmetry could not be determined.
 Excited State   1:      Singlet-?Sym    4.1441 eV  299.18 nm  f=0.5133  <S**2>=0.000
      51 -> 52         0.66892
 This state for optimization and/or second-order correction.
 Total Energy, E(TD-HF/TD-KS) =  -632.000104216    
 Copying the excited state density for this state as the 1-particle RhoCI density.
 SavETr:  write IOETrn=   770 NScale= 10 NData=  16 NLR=1 NState=    1 LETran=      28.

 **********************************************************************

            Population analysis using the SCF density.

 **********************************************************************

 Alpha  occ. eigenvalues --  -19.24766 -19.22139 -14.49148 -10.37246 -10.34919
 Alpha  occ. eigenvalues --  -10.34589 -10.34034 -10.33772 -10.29434 -10.29181
 Alpha  occ. eigenvalues --  -10.29040 -10.27928 -10.27701 -10.27290  -1.15838
 Alpha  occ. eigenvalues --   -1.12341  -1.08880  -0.95645  -0.89411  -0.86223
 Alpha  occ. eigenvalues --   -0.85360  -0.83699  -0.80152  -0.73650  -0.70071
 Alpha  occ. eigenvalues --   -0.68715  -0.65163  -0.63110  -0.60229  -0.59066
 Alpha  occ. eigenvalues --   -0.58563  -0.58133  -0.55299  -0.53184  -0.51899
 Alpha  occ. eigenvalues --   -0.51872  -0.51422  -0.51247  -0.50412  -0.49613
 Alpha  occ. eigenvalues --   -0.47009  -0.46770  -0.46405  -0.45322  -0.42276
 Alpha  occ. eigenvalues --   -0.42000  -0.41700  -0.33698  -0.33449  -0.30049
 Alpha  occ. eigenvalues --   -0.28731
 Alpha virt. eigenvalues --    0.00352   0.02665   0.04144   0.04946   0.05721
 Alpha virt. eigenvalues --    0.05866   0.06125   0.06503   0.07640   0.08014
 Alpha virt. eigenvalues --    0.08136   0.08285   0.08478   0.10019   0.10451
 Alpha virt. eigenvalues --    0.11772   0.12060   0.12824   0.13112   0.13637
 Alpha virt. eigenvalues --    0.14206   0.14665   0.14968   0.15303   0.15980
 Alpha virt. eigenvalues --    0.16291   0.16386   0.16547   0.16960   0.17440
 Alpha virt. eigenvalues --    0.17844   0.17889   0.18375   0.19028   0.19124
 Alpha virt. eigenvalues --    0.19715   0.20074   0.20225   0.21126   0.21673
 Alpha virt. eigenvalues --    0.21916   0.22025   0.22302   0.23148   0.23424
 Alpha virt. eigenvalues --    0.23950   0.24329   0.24561   0.25607   0.25810
 Alpha virt. eigenvalues --    0.26196   0.26642   0.26870   0.27600   0.27974
 Alpha virt. eigenvalues --    0.28440   0.28501   0.29342   0.29710   0.30233
 Alpha virt. eigenvalues --    0.30855   0.31286   0.32400   0.32656   0.33027
 Alpha virt. eigenvalues --    0.33614   0.34178   0.34630   0.35298   0.35720
 Alpha virt. eigenvalues --    0.36215   0.36935   0.37313   0.37927   0.38540
 Alpha virt. eigenvalues --    0.38748   0.39030   0.39633   0.40263   0.40736
 Alpha virt. eigenvalues --    0.41257   0.41827   0.43115   0.43452   0.43855
 Alpha virt. eigenvalues --    0.44459   0.45842   0.46785   0.47372   0.48429
 Alpha virt. eigenvalues --    0.50372   0.50836   0.51509   0.52068   0.52388
 Alpha virt. eigenvalues --    0.55087   0.56855   0.58023   0.60238   0.60342
 Alpha virt. eigenvalues --    0.62542   0.62883   0.63016   0.63935   0.64365
 Alpha virt. eigenvalues --    0.65236   0.65785   0.66740   0.67133   0.67873
 Alpha virt. eigenvalues --    0.68851   0.69605   0.70213   0.70596   0.70875
 Alpha virt. eigenvalues --    0.70990   0.71466   0.72090   0.74007   0.74636
 Alpha virt. eigenvalues --    0.75557   0.75979   0.76831   0.77727   0.78967
 Alpha virt. eigenvalues --    0.80118   0.80492   0.80831   0.82603   0.83668
 Alpha virt. eigenvalues --    0.85696   0.86845   0.87461   0.88355   0.89610
 Alpha virt. eigenvalues --    0.91583   0.94098   0.94621   0.94685   0.95855
 Alpha virt. eigenvalues --    0.96557   0.97811   0.98572   0.99395   0.99980
 Alpha virt. eigenvalues --    1.01435   1.03810   1.04547   1.05096   1.06270
 Alpha virt. eigenvalues --    1.08240   1.08608   1.09730   1.10674   1.12135
 Alpha virt. eigenvalues --    1.13765   1.14454   1.15854   1.16440   1.17857
 Alpha virt. eigenvalues --    1.18342   1.18592   1.20477   1.21025   1.22305
 Alpha virt. eigenvalues --    1.23511   1.28499   1.32190   1.33181   1.33969
 Alpha virt. eigenvalues --    1.35093   1.36723   1.38801   1.40641   1.43667
 Alpha virt. eigenvalues --    1.43737   1.47246   1.50616   1.51225   1.51802
 Alpha virt. eigenvalues --    1.54800   1.55250   1.57378   1.58554   1.59495
 Alpha virt. eigenvalues --    1.60855   1.61971   1.62797   1.64085   1.65451
 Alpha virt. eigenvalues --    1.65624   1.65990   1.66642   1.67609   1.70077
 Alpha virt. eigenvalues --    1.72073   1.73194   1.73493   1.75332   1.75782
 Alpha virt. eigenvalues --    1.76887   1.77668   1.80685   1.81603   1.82523
 Alpha virt. eigenvalues --    1.82841   1.83565   1.84508   1.86177   1.87508
 Alpha virt. eigenvalues --    1.89956   1.91652   1.92407   1.96327   1.99310
 Alpha virt. eigenvalues --    1.99683   2.00934   2.02239   2.02581   2.03774
 Alpha virt. eigenvalues --    2.05153   2.05545   2.06328   2.07007   2.08395
 Alpha virt. eigenvalues --    2.10012   2.11891   2.12439   2.14491   2.16028
 Alpha virt. eigenvalues --    2.17827   2.19515   2.21960   2.24645   2.25252
 Alpha virt. eigenvalues --    2.26480   2.31229   2.32523   2.36103   2.38163
 Alpha virt. eigenvalues --    2.40343   2.43254   2.46225   2.46785   2.48760
 Alpha virt. eigenvalues --    2.50257   2.52974   2.54591   2.55527   2.57761
 Alpha virt. eigenvalues --    2.58187   2.59276   2.62245   2.62649   2.62915
 Alpha virt. eigenvalues --    2.67000   2.68890   2.71614   2.72232   2.74831
 Alpha virt. eigenvalues --    2.75511   2.77804   2.80443   2.80787   2.82006
 Alpha virt. eigenvalues --    2.82419   2.84081   2.84796   2.86297   2.86698
 Alpha virt. eigenvalues --    2.87064   2.89181   2.91026   2.91338   2.92302
 Alpha virt. eigenvalues --    2.95019   2.95654   2.96149   2.98953   2.99382
 Alpha virt. eigenvalues --    3.02864   3.04990   3.08568   3.12060   3.14837
 Alpha virt. eigenvalues --    3.17702   3.19697   3.23028   3.23445   3.26856
 Alpha virt. eigenvalues --    3.27624   3.30399   3.31591   3.32536   3.38225
 Alpha virt. eigenvalues --    3.43140   3.47554   3.51528   3.57284   3.61449
 Alpha virt. eigenvalues --    3.63866   3.65137   3.68779   3.70253   3.72808
 Alpha virt. eigenvalues --    3.75992   3.80790   3.81886   3.82184   3.84898
 Alpha virt. eigenvalues --    3.90098   3.93551   3.94914   4.04127   4.08628
 Alpha virt. eigenvalues --    4.12948   4.15196   4.18598   4.29750   4.30899
 Alpha virt. eigenvalues --    4.40483   4.64351   4.95342   4.98488   5.14857
 Alpha virt. eigenvalues --    5.18229   5.19191   5.42803   5.63537   5.89858
 Alpha virt. eigenvalues --    5.95459  23.73773  23.95051  24.03888  24.04881
 Alpha virt. eigenvalues --   24.06732  24.07570  24.09931  24.17820  24.25460
 Alpha virt. eigenvalues --   24.29867  24.34301  35.70644  50.14416  50.20190
          Condensed to atoms (all electrons):
               1          2          3          4          5          6
     1  C   16.528928   1.011611   1.335669  -3.666301  -3.796233  -0.074168
     2  C    1.011611  13.366779  -4.449434   2.088740   1.205557   0.752263
     3  C    1.335669  -4.449434  16.644312  -3.882199  -3.345098  -0.121320
     4  C   -3.666301   2.088740  -3.882199  12.560081  -0.379182  -0.245518
     5  C   -3.796233   1.205557  -3.345098  -0.379182  11.949390  -0.242587
     6  O   -0.074168   0.752263  -0.121320  -0.245518  -0.242587   8.157677
     7  C   -2.761046  -0.575392   0.403304   1.038923  -0.009608  -0.048421
     8  O    0.083370  -0.044318   0.362060  -0.031630  -0.038431  -0.001582
     9  H   -0.142254   0.027508   0.005539   0.030363   0.015089   0.073931
    10  C   -1.887806  -0.385850   0.389471   1.285293  -0.592569  -0.006714
    11  H   -0.162233   0.094133  -0.016606   0.676719  -0.052149  -0.002937
    12  C   -1.848008  -5.432024  -1.430253  -1.834540   1.891243   0.114809
    13  H   -0.071770  -0.074372   0.032802  -0.074475   0.528668  -0.007399
    14  C   -0.331118  -0.517006  -0.133914  -0.005951  -0.514848  -0.027472
    15  H   -0.082203  -0.007210  -0.083307   0.011232   0.003243   0.001171
    16  H    0.033293  -0.012611   0.037847  -0.060324   0.000208   0.000736
    17  H   -0.064627   0.142820  -0.063698   0.043872   0.087880   0.009895
    18  N   -0.005256  -0.014691   0.003990  -0.003246  -0.241926   0.005367
    19  H    0.086206   0.001505   0.020482  -0.043243  -0.007408  -0.000400
    20  C   -0.171481  -0.277371  -0.023443  -0.018552   0.116368  -0.000927
    21  C    0.016167  -0.136663  -0.003510  -0.014170  -0.110385   0.002470
    22  H   -0.005086  -0.016678  -0.002071  -0.000116  -0.032667   0.000574
    23  H   -0.003989  -0.021517   0.000429  -0.005460   0.014676   0.000104
    24  H   -0.001954   0.007516  -0.001690   0.001023  -0.003746   0.000087
    25  H    0.004894  -0.002084   0.003664  -0.004434  -0.000582   0.000071
    26  H   -0.000031   0.003752  -0.000375   0.000547   0.018771   0.000003
    27  H   -0.000178   0.001319  -0.000259   0.000708   0.008963  -0.000019
               7          8          9         10         11         12
     1  C   -2.761046   0.083370  -0.142254  -1.887806  -0.162233  -1.848008
     2  C   -0.575392  -0.044318   0.027508  -0.385850   0.094133  -5.432024
     3  C    0.403304   0.362060   0.005539   0.389471  -0.016606  -1.430253
     4  C    1.038923  -0.031630   0.030363   1.285293   0.676719  -1.834540
     5  C   -0.009608  -0.038431   0.015089  -0.592569  -0.052149   1.891243
     6  O   -0.048421  -0.001582   0.073931  -0.006714  -0.002937   0.114809
     7  C    8.174800  -0.387335   0.067032  -0.159360   0.040767  -0.225844
     8  O   -0.387335   8.108738   0.251249   0.001618  -0.003448   0.007291
     9  H    0.067032   0.251249   0.302192   0.013618   0.001960  -0.010696
    10  C   -0.159360   0.001618   0.013618   7.343317  -0.047921  -0.035814
    11  H    0.040767  -0.003448   0.001960  -0.047921   0.603828  -0.173589
    12  C   -0.225844   0.007291  -0.010696  -0.035814  -0.173589  13.801888
    13  H    0.020709   0.000230  -0.001203  -0.088897  -0.034456   0.008281
    14  C    0.434011   0.021555  -0.006777   0.595523   0.038704  -0.193183
    15  H    0.537072  -0.025642   0.001972  -0.000934  -0.000759   0.000620
    16  H    0.015693   0.000262   0.000330   0.367813  -0.022916   0.007417
    17  H   -0.004346   0.000202   0.000593   0.002870   0.001190   0.251432
    18  N    0.000407  -0.000095   0.000080  -0.000408  -0.005473   0.189667
    19  H   -0.097448   0.000801  -0.000498  -0.055870   0.002608  -0.001620
    20  C    0.004249  -0.000149  -0.000988  -0.008286   0.000156   0.180150
    21  C   -0.000863   0.000323   0.000044   0.001052  -0.002283  -0.014987
    22  H   -0.000985   0.000051   0.000002   0.001514  -0.000904   0.032377
    23  H    0.000204  -0.000009  -0.000095  -0.000653  -0.000123   0.035070
    24  H   -0.000718   0.000027   0.000035   0.001720  -0.002314  -0.012506
    25  H    0.000162  -0.000122   0.000033  -0.000436   0.000500   0.071273
    26  H   -0.000012   0.000008   0.000016   0.000086   0.000034  -0.028853
    27  H    0.000011   0.000003   0.000032   0.000022  -0.000140  -0.016207
              13         14         15         16         17         18
     1  C   -0.071770  -0.331118  -0.082203   0.033293  -0.064627  -0.005256
     2  C   -0.074372  -0.517006  -0.007210  -0.012611   0.142820  -0.014691
     3  C    0.032802  -0.133914  -0.083307   0.037847  -0.063698   0.003990
     4  C   -0.074475  -0.005951   0.011232  -0.060324   0.043872  -0.003246
     5  C    0.528668  -0.514848   0.003243   0.000208   0.087880  -0.241926
     6  O   -0.007399  -0.027472   0.001171   0.000736   0.009895   0.005367
     7  C    0.020709   0.434011   0.537072   0.015693  -0.004346   0.000407
     8  O    0.000230   0.021555  -0.025642   0.000262   0.000202  -0.000095
     9  H   -0.001203  -0.006777   0.001972   0.000330   0.000593   0.000080
    10  C   -0.088897   0.595523  -0.000934   0.367813   0.002870  -0.000408
    11  H   -0.034456   0.038704  -0.000759  -0.022916   0.001190  -0.005473
    12  C    0.008281  -0.193183   0.000620   0.007417   0.251432   0.189667
    13  H    0.683226  -0.015198   0.000854   0.004179   0.001771  -0.029847
    14  C   -0.015198   6.669598  -0.040181  -0.066534  -0.000365   0.000075
    15  H    0.000854  -0.040181   0.464934   0.001582  -0.000258  -0.000002
    16  H    0.004179  -0.066534   0.001582   0.486102  -0.000175   0.000129
    17  H    0.001771  -0.000365  -0.000258  -0.000175   0.467133  -0.065400
    18  N   -0.029847   0.000075  -0.000002   0.000129  -0.065400   6.873258
    19  H   -0.001407   0.431624  -0.011875  -0.011114   0.000036  -0.000009
    20  C    0.015310  -0.004577   0.000037  -0.000293   0.004999   0.238913
    21  C   -0.008668  -0.000516   0.000011   0.000095  -0.041371   0.272247
    22  H   -0.004521   0.000439  -0.000020  -0.000078   0.001799  -0.047308
    23  H    0.001593  -0.000189   0.000002  -0.000021  -0.001103  -0.049120
    24  H   -0.000866   0.000378  -0.000008   0.000090  -0.001062  -0.045514
    25  H   -0.002744  -0.000011   0.000005  -0.000006  -0.008962  -0.097285
    26  H   -0.000303  -0.000019   0.000000   0.000005   0.003206  -0.049235
    27  H    0.001775   0.000014   0.000000   0.000000   0.002341  -0.051623
              19         20         21         22         23         24
     1  C    0.086206  -0.171481   0.016167  -0.005086  -0.003989  -0.001954
     2  C    0.001505  -0.277371  -0.136663  -0.016678  -0.021517   0.007516
     3  C    0.020482  -0.023443  -0.003510  -0.002071   0.000429  -0.001690
     4  C   -0.043243  -0.018552  -0.014170  -0.000116  -0.005460   0.001023
     5  C   -0.007408   0.116368  -0.110385  -0.032667   0.014676  -0.003746
     6  O   -0.000400  -0.000927   0.002470   0.000574   0.000104   0.000087
     7  C   -0.097448   0.004249  -0.000863  -0.000985   0.000204  -0.000718
     8  O    0.000801  -0.000149   0.000323   0.000051  -0.000009   0.000027
     9  H   -0.000498  -0.000988   0.000044   0.000002  -0.000095   0.000035
    10  C   -0.055870  -0.008286   0.001052   0.001514  -0.000653   0.001720
    11  H    0.002608   0.000156  -0.002283  -0.000904  -0.000123  -0.002314
    12  C   -0.001620   0.180150  -0.014987   0.032377   0.035070  -0.012506
    13  H   -0.001407   0.015310  -0.008668  -0.004521   0.001593  -0.000866
    14  C    0.431624  -0.004577  -0.000516   0.000439  -0.000189   0.000378
    15  H   -0.011875   0.000037   0.000011  -0.000020   0.000002  -0.000008
    16  H   -0.011114  -0.000293   0.000095  -0.000078  -0.000021   0.000090
    17  H    0.000036   0.004999  -0.041371   0.001799  -0.001103  -0.001062
    18  N   -0.000009   0.238913   0.272247  -0.047308  -0.049120  -0.045514
    19  H    0.485629  -0.000081  -0.000001   0.000026  -0.000004   0.000004
    20  C   -0.000081   5.222409  -0.056488   0.424347   0.386311   0.412339
    21  C   -0.000001  -0.056488   5.177227   0.002192   0.007203  -0.000477
    22  H    0.000026   0.424347   0.002192   0.533528  -0.016995  -0.054460
    23  H   -0.000004   0.386311   0.007203  -0.016995   0.483641  -0.021718
    24  H    0.000004   0.412339  -0.000477  -0.054460  -0.021718   0.531329
    25  H    0.000000  -0.003136   0.411542  -0.001726   0.003604  -0.001731
    26  H    0.000000   0.005702   0.401925   0.002407  -0.006004  -0.000709
    27  H    0.000000  -0.002915   0.404592  -0.001326  -0.005556   0.002829
              25         26         27
     1  C    0.004894  -0.000031  -0.000178
     2  C   -0.002084   0.003752   0.001319
     3  C    0.003664  -0.000375  -0.000259
     4  C   -0.004434   0.000547   0.000708
     5  C   -0.000582   0.018771   0.008963
     6  O    0.000071   0.000003  -0.000019
     7  C    0.000162  -0.000012   0.000011
     8  O   -0.000122   0.000008   0.000003
     9  H    0.000033   0.000016   0.000032
    10  C   -0.000436   0.000086   0.000022
    11  H    0.000500   0.000034  -0.000140
    12  C    0.071273  -0.028853  -0.016207
    13  H   -0.002744  -0.000303   0.001775
    14  C   -0.000011  -0.000019   0.000014
    15  H    0.000005   0.000000   0.000000
    16  H   -0.000006   0.000005   0.000000
    17  H   -0.008962   0.003206   0.002341
    18  N   -0.097285  -0.049235  -0.051623
    19  H    0.000000   0.000000   0.000000
    20  C   -0.003136   0.005702  -0.002915
    21  C    0.411542   0.401925   0.404592
    22  H   -0.001726   0.002407  -0.001326
    23  H    0.003604  -0.006004  -0.005556
    24  H   -0.001731  -0.000709   0.002829
    25  H    0.536647  -0.028042  -0.023950
    26  H   -0.028042   0.559816  -0.064767
    27  H   -0.023950  -0.064767   0.559951
 Mulliken charges:
               1
     1  C    1.975605
     2  C   -0.736283
     3  C    0.317605
     4  C   -1.468160
     5  C   -0.472637
     6  O   -0.339692
     7  C   -0.465968
     8  O   -0.305025
     9  H    0.370892
    10  C   -0.732399
    11  H    0.067652
    12  C    0.666604
    13  H    0.116730
    14  C   -0.334062
    15  H    0.229664
    16  H    0.218290
    17  H    0.229328
    18  N    0.122306
    19  H    0.202057
    20  C   -0.442605
    21  C   -0.306708
    22  H    0.185684
    23  H    0.199719
    24  H    0.192094
    25  H    0.142858
    26  H    0.182071
    27  H    0.184380
 Sum of Mulliken charges =   0.00000
 Mulliken charges with hydrogens summed into heavy atoms:
               1
     1  C    1.975605
     2  C   -0.736283
     3  C    0.317605
     4  C   -1.400508
     5  C   -0.355907
     6  O   -0.339692
     7  C   -0.236304
     8  O    0.065867
    10  C   -0.514109
    12  C    0.895932
    14  C   -0.132005
    18  N    0.122306
    20  C    0.134893
    21  C    0.202601
 Electronic spatial extent (au):  <R**2>=           6762.3831
 Charge=              0.0000 electrons
 Dipole moment (field-independent basis, Debye):
    X=             -4.4999    Y=             -4.3176    Z=             -3.1742  Tot=              6.9976
 Quadrupole moment (field-independent basis, Debye-Ang):
   XX=            -52.7613   YY=            -76.2325   ZZ=            -68.5775
   XY=             18.5495   XZ=             10.8471   YZ=             12.7420
 Traceless Quadrupole moment (field-independent basis, Debye-Ang):
   XX=             13.0957   YY=            -10.3754   ZZ=             -2.7204
   XY=             18.5495   XZ=             10.8471   YZ=             12.7420
 Octapole moment (field-independent basis, Debye-Ang**2):
  XXX=            110.5771  YYY=            159.1627  ZZZ=            565.6333  XYY=             31.2198
  XXY=            -14.7906  XXZ=            126.9068  XZZ=             47.6114  YZZ=              9.9528
  YYZ=            181.5283  XYZ=            -51.7518
 Hexadecapole moment (field-independent basis, Debye-Ang**3):
 XXXX=          -3149.9314 YYYY=          -1303.6831 ZZZZ=          -3600.9285 XXXY=           -515.6457
 XXXZ=           -231.0176 YYYX=           -850.5796 YYYZ=           -512.5333 ZZZX=           -403.8315
 ZZZY=           -371.6095 XXYY=           -645.0382 XXZZ=          -1031.5504 YYZZ=           -765.7402
 XXYZ=              2.2073 YYXZ=            -22.7785 ZZXY=           -168.5755
 N-N= 8.382103712894D+02 E-N=-3.150305776116D+03  KE= 6.296336189122D+02
 1\1\GINC-NXV34\SP\RwB97XD TD-FC\6-311++G(d,p)\C11H13N1O2\CA12053\18-Se
 p-2017\0\\# wb97xd 6-311++g** td=(singlets,nstates=1) nosymm\\Monomer 
 Excitation J2\\0,1\C,0,0.172341,-0.187617,-2.513281\C,0,-1.15928,-0.53
 0958,-1.948253\C,0,0.999324,0.726072,-1.820478\C,0,0.65854,-0.735505,-
 3.710156\C,0,-2.064376,-1.389635,-2.681212\O,0,-1.48429,-0.059676,-0.8
 39821\C,0,2.258423,1.06002,-2.329142\O,0,0.621977,1.299573,-0.671555\H
 ,0,-0.251704,0.892357,-0.441721\C,0,1.901769,-0.403627,-4.211587\H,0,0
 .053759,-1.445943,-4.259628\C,0,-3.253773,-1.710577,-2.098465\H,0,-1.8
 04856,-1.753759,-3.663895\C,0,2.702534,0.499963,-3.510111\H,0,2.867752
 ,1.75876,-1.767654\H,0,2.25337,-0.846389,-5.135799\H,0,-3.441076,-1.31
 9371,-1.102273\N,0,-4.234034,-2.457669,-2.623664\H,0,3.683379,0.761646
 ,-3.891993\C,0,-4.096938,-3.015073,-3.954991\C,0,-5.442712,-2.754541,-
 1.878978\H,0,-3.91279,-2.222641,-4.688619\H,0,-5.018438,-3.528928,-4.2
 25763\H,0,-3.268862,-3.731619,-3.99826\H,0,-5.393468,-2.277174,-0.9000
 74\H,0,-5.55699,-3.833238,-1.732732\H,0,-6.325552,-2.375343,-2.404822\
 \Version=ES64L-G09RevD.01\HF=-632.1523982\RMSD=4.076e-09\PG=C01 [X(C11
 H13N1O2)]\\@


 WE HAVE SEEN THAT MAN ON THE AVERAGE DOES NOT LIVE ABOVE
 TWO-AND-TWENTY YEARS.  DURING THESE TWO AND TWENTY
 YEARS HE IS LIABLE TO TWO AND TWENTY THOUSAND EVILS,
 MANY OF WHICH ARE INCURABLE.  YET EVEN IN THIS DREADFUL STATE
 MEN STILL STRUT AND POSE ON THE STAGE OF LIFE.
 THEY MAKE LOVE AT THE RISK OF DESTRUCTION,
 INTRIGUE, CARRY ON WAR, AND FORM PROJECTS, JUST AS IF THEY
 WERE TO LIVE IN LUXURY AND HAPPINESS FOR A THOUSAND
 AGES.

                                              -- VOLTAIRE
 Job cpu time:       0 days  0 hours 55 minutes 58.1 seconds.
 File lengths (MBytes):  RWF=    156 Int=      0 D2E=      0 Chk=     15 Scr=      1
 Normal termination of Gaussian 09 at Mon Sep 18 15:10:42 2017.
