
     Program PWSCF v.6.1 (svn rev. 13369) starts on 30Oct2017 at 12:43:27 

     This program is part of the open-source Quantum ESPRESSO suite
     for quantum simulation of materials; please cite
         "P. Giannozzi et al., J. Phys.:Condens. Matter 21 395502 (2009);
          URL http://www.quantum-espresso.org", 
     in publications or presentations arising from this work. More details at
     http://www.quantum-espresso.org/quote

     Parallel version (MPI), running on     1 processors
     Waiting for input...
     Reading input from standard input

     Current dimensions of program PWSCF are:
     Max number of different atomic species (ntypx) = 10
     Max number of k-points (npk) =  40000
     Max angular momentum in pseudopotentials (lmaxx) =  3
     Message from routine iosys:
     london is obsolete, use "vdw_corr='grimme-d2'" instead

     IMPORTANT: XC functional enforced from input :
     Exchange-correlation      = PBE ( 1  4  3  4 0 0)
     Any further DFT definition will be discarded
     Please, verify this is what you really want

               file C.pbe-rrkjus.UPF: wavefunction(s)  2S 2P renormalized
               file H.pbe-rrkjus.UPF: wavefunction(s)  1S renormalized
               file O.pbe-rrkjus.UPF: wavefunction(s)  2S renormalized
               file N.pbe-rrkjus.UPF: wavefunction(s)  2S renormalized

     -------------------------------------
     Parameters for Dispersion Correction:
     -------------------------------------
       atom      VdW radius       C_6     

        C          2.744         60.710
        H          1.892          4.857
        O          2.536         24.284
        N          2.640         42.670
        F          2.432         26.018

     Subspace diagonalization in iterative solution of the eigenvalue problem:
     a serial algorithm will be used

 
     G-vector sticks info
     --------------------
     sticks:   dense  smooth     PW     G-vecs:    dense   smooth      PW
     Sum        5811    5811   1623               309629   309629   45499
 


     bravais-lattice index     =            0
     lattice parameter (alat)  =      14.5573  a.u.
     unit-cell volume          =   13946.7717 (a.u.)^3
     number of atoms/cell      =          216
     number of atomic types    =            5
     number of electrons       =       640.00
     number of Kohn-Sham states=          320
     kinetic-energy cutoff     =      30.0000  Ry
     charge density cutoff     =     120.0000  Ry
     convergence threshold     =      1.0E-07
     mixing beta               =       0.7000
     number of iterations used =            8  plain     mixing
     Exchange-correlation      = PBE ( 1  4  3  4 0 0)
     nstep                     =           50


     celldm(1)=  14.557317  celldm(2)=   0.000000  celldm(3)=   0.000000
     celldm(4)=   0.000000  celldm(5)=   0.000000  celldm(6)=   0.000000

     crystal axes: (cart. coord. in units of alat)
               a(1) = (   1.000000   0.000000   0.000000 )  
               a(2) = (   0.000000   2.871329   0.000000 )  
               a(3) = (  -0.429852   0.000000   1.574515 )  

     reciprocal axes: (cart. coord. in units 2 pi/alat)
               b(1) = (  1.000000  0.000000  0.273006 )  
               b(2) = (  0.000000  0.348271  0.000000 )  
               b(3) = (  0.000000  0.000000  0.635116 )  


     PseudoPot. # 1 for C  read from file:
     /data/home/btx156/espresso/pseudo/C.pbe-rrkjus.UPF
     MD5 check sum: 00fb224312de0c5b6853bd333518df6f
     Pseudo is Ultrasoft, Zval =  4.0
     Generated by new atomic code, or converted to UPF format
     Using radial grid of  627 points,  4 beta functions with: 
                l(1) =   0
                l(2) =   0
                l(3) =   1
                l(4) =   1
     Q(r) pseudized with 0 coefficients 


     PseudoPot. # 2 for H  read from file:
     /data/home/btx156/espresso/pseudo/H.pbe-rrkjus.UPF
     MD5 check sum: 7cc9d459525c9a0585f487a71c3c9563
     Pseudo is Ultrasoft, Zval =  1.0
     Generated by new atomic code, or converted to UPF format
     Using radial grid of 1061 points,  2 beta functions with: 
                l(1) =   0
                l(2) =   0
     Q(r) pseudized with 0 coefficients 


     PseudoPot. # 3 for O  read from file:
     /data/home/btx156/espresso/pseudo/O.pbe-rrkjus.UPF
     MD5 check sum: 390ba29e75625707450f3bd3f0eb6be9
     Pseudo is Ultrasoft, Zval =  6.0
     Generated by new atomic code, or converted to UPF format
     Using radial grid of 1269 points,  4 beta functions with: 
                l(1) =   0
                l(2) =   0
                l(3) =   1
                l(4) =   1
     Q(r) pseudized with 0 coefficients 


     PseudoPot. # 4 for N  read from file:
     /data/home/btx156/espresso/pseudo/N.pbe-rrkjus.UPF
     MD5 check sum: 0c3fbe5807a93f9ba59d5a7019aa238b
     Pseudo is Ultrasoft, Zval =  5.0
     Generated by new atomic code, or converted to UPF format
     Using radial grid of 1257 points,  4 beta functions with: 
                l(1) =   0
                l(2) =   0
                l(3) =   1
                l(4) =   1
     Q(r) pseudized with 0 coefficients 


     PseudoPot. # 5 for  F read from file:
     /data/home/btx156/espresso/pseudo/F.pbe-n-rrkjus_psl.0.1.UPF
     MD5 check sum: 04c7599644978b7d0345d67c6032d20f
     Pseudo is Ultrasoft + core correction, Zval =  7.0
     Generated using "atomic" code by A. Dal Corso  v.5.0.2 svn rev. 9415
     Using radial grid of 1105 points,  4 beta functions with: 
                l(1) =   0
                l(2) =   0
                l(3) =   1
                l(4) =   1
     Q(r) pseudized with 0 coefficients 


     atomic species   valence    mass     pseudopotential
        C              4.00    12.00000     C ( 1.00)
        H              1.00     1.00790     H ( 1.00)
        O              6.00    15.99940     O ( 1.00)
        N              5.00    14.00670     N ( 1.00)
        F              7.00    18.99840      F( 1.00)

      4 Sym. Ops., with inversion, found ( 2 have fractional translation)



   Cartesian axes

     site n.     atom                  positions (alat units)
         1           C   tau(   1) = (   0.0339435   0.5258235   0.1053407  )
         2           H   tau(   2) = (   0.1670229   0.4826033   0.0732320  )
         3           H   tau(   3) = (   0.9463255   0.4831334   0.0010232  )
         4           H   tau(   4) = (  -0.0078488   0.4645578   0.2271603  )
         5           C   tau(   5) = (   0.5386535   0.8061419   1.5383575  )
         6           H   tau(   6) = (   0.5372979   0.9463314   1.5628011  )
         7           H   tau(   7) = (   0.4073980   0.7618699   1.5020424  )
         8           H   tau(   8) = (  -0.3738471   0.7777155   1.4283438  )
         9           C   tau(   9) = (   0.3955272   0.8161571   1.0028570  )
        10           H   tau(  10) = (   0.4587095   0.9025601   1.0957092  )
        11           C   tau(  11) = (   0.2843795   0.5285846   0.9273134  )
        12           H   tau(  12) = (   0.2556314   0.3959543   0.9673714  )
        13           C   tau(  13) = (   0.3417252   0.8795370   0.8405292  )
        14           F   tau(  14) = (   0.4153978   0.5830944   1.2011495  )
        15           C   tau(  15) = (   0.0800877   0.8002123   0.2595999  )
        16           H   tau(  16) = (   0.0757645   0.9417062   0.2487936  )
        17           C   tau(  17) = (   0.2335595   0.5924667   0.7665807  )
        18           H   tau(  18) = (   0.1647649   0.5043812   0.6799561  )
        19           N   tau(  19) = (   0.0261633   0.7146336   0.1190246  )
        20           C   tau(  20) = (   0.2055265   0.8387825   0.5478083  )
        21           C   tau(  21) = (   0.1419677   0.7292347   0.4128567  )
        22           H   tau(  22) = (   0.1467073   0.5891208   0.4288691  )
        23           O   tau(  23) = (   0.3654682   1.0481853   0.8046703  )
        24           H   tau(  24) = (   0.3043340   1.0607926   0.6817211  )
        25           O   tau(  25) = (   0.2178635   1.0045290   0.5281551  )
        26           C   tau(  26) = (   0.2614503   0.7660140   0.7170766  )
        27           C   tau(  27) = (   0.4119706   1.6842658   0.3484402  )
        28           H   tau(  28) = (   0.5213703   1.6989382   0.2573779  )
        29           H   tau(  29) = (   0.4495500   1.7359216   0.4758202  )
        30           H   tau(  30) = (   0.3003740   1.7590426   0.2993459  )
        31           C   tau(  31) = (   0.3980727   1.4218831   0.5353152  )
        32           H   tau(  32) = (   0.3544753   1.2866712   0.5314896  )
        33           H   tau(  33) = (   0.3278110   1.4930061   0.6379052  )
        34           H   tau(  34) = (   0.5379283   1.4263418   0.5659410  )
        35           C   tau(  35) = (   0.6624244   1.5274838   0.9960603  )
        36           C   tau(  36) = (  -0.2378807   1.5953413   1.2803450  )
        37           H   tau(  37) = (  -0.1912374   1.6919229   1.3727764  )
        38           C   tau(  38) = (  -0.2758400   1.6510668   1.1130559  )
        39           H   tau(  39) = (  -0.2603316   1.7867118   1.0751815  )
        40           C   tau(  40) = (   0.3017506   1.4113002   0.2343804  )
        41           H   tau(  41) = (   0.2681064   1.2766513   0.2645283  )
        42           C   tau(  42) = (   0.6383141   1.3547906   1.0377087  )
        43           H   tau(  43) = (   0.5870920   1.2623626   0.9430941  )
        44           C   tau(  44) = (  -0.3254450   1.3011359   1.2083117  )
        45           C   tau(  45) = (  -0.2608125   1.4220123   1.3338685  )
        46           N   tau(  46) = (   0.3656550   1.5021541   0.3671887  )
        47           C   tau(  47) = (  -0.2266036   1.3599341   1.5126997  )
        48           O   tau(  48) = (   0.6464303   1.1346090   1.2521532  )
        49           H   tau(  49) = (  -0.3202882   1.1337881   1.3870415  )
        50           F   tau(  50) = (   0.6221477   1.5793740   0.8297955  )
        51           O   tau(  51) = (  -0.2618121   1.1991018   1.5466211  )
        52           C   tau(  52) = (   0.3652159   0.6438121   1.0407027  )
        53           C   tau(  53) = (   0.2735286   1.4716065   0.0676982  )
        54           H   tau(  54) = (   0.3059275   1.6048316   0.0344212  )
        55           C   tau(  55) = (   0.7511294   1.9614882   0.6819169  )
        56           C   tau(  56) = (   0.5362035   2.3455060   1.4691744  )
        57           C   tau(  57) = (  -0.1809824   0.9098413   0.8925982  )
        58           H   tau(  58) = (   0.6180512   1.9182681   0.7140255  )
        59           H   tau(  59) = (   0.4031253   2.3887262   1.5012831  )
        60           H   tau(  60) = (  -0.0479043   0.9530614   0.8604896  )
        61           H   tau(  61) = (  -0.1612514   1.9187981   0.7862344  )
        62           H   tau(  62) = (  -0.3761773   2.3881961   1.5734920  )
        63           H   tau(  63) = (   0.7313983   0.9525313   0.7882794  )
        64           H   tau(  64) = (   0.7929229   1.9002225   0.5600972  )
        65           H   tau(  65) = (   0.5779970   2.4067717   1.3473548  )
        66           H   tau(  66) = (  -0.2227760   0.9711070   1.0144179  )
        67           C   tau(  67) = (  -0.1834324   2.2418067   0.8234152  )
        68           C   tau(  68) = (   0.0314947   2.0651876   0.0361577  )
        69           C   tau(  69) = (   0.7535794   0.6295228   0.7510999  )
        70           H   tau(  70) = (  -0.1820768   2.3819961   0.7989703  )
        71           H   tau(  71) = (   0.0328491   1.9249981   0.0117127  )
        72           H   tau(  72) = (   0.7522237   0.4893334   0.7755449  )
        73           H   tau(  73) = (  -0.0521769   2.1975347   0.8597289  )
        74           H   tau(  74) = (   0.1627490   2.1094596   0.0724714  )
        75           H   tau(  75) = (   0.6223252   0.6737948   0.7147849  )
        76           H   tau(  76) = (   0.7290681   2.2133803   0.9334276  )
        77           H   tau(  77) = (   0.9439940   2.0936140   0.1461700  )
        78           H   tau(  78) = (  -0.1589199   0.6579492   0.6410875  )
        79           C   tau(  79) = (  -0.0403062   2.2518219   1.3589157  )
        80           C   tau(  80) = (   0.1746197   2.0551724   0.5716581  )
        81           C   tau(  81) = (   0.6104531   0.6195076   0.2155994  )
        82           H   tau(  82) = (  -0.1034885   2.3382248   1.2660622  )
        83           H   tau(  83) = (   0.1114374   1.9687694   0.4788059  )
        84           H   tau(  84) = (   0.6736367   0.5331047   0.3084517  )
        85           C   tau(  85) = (   0.0708429   1.9642494   1.4344579  )
        86           C   tau(  86) = (   0.2857687   2.3427449   0.6472004  )
        87           C   tau(  87) = (   0.4993054   0.9070801   0.1400572  )
        88           H   tau(  88) = (   0.0995897   1.8316190   1.3944000  )
        89           H   tau(  89) = (   0.3145168   2.4753752   0.6071437  )
        90           H   tau(  90) = (   0.4705573   1.0397105   0.1801138  )
        91           C   tau(  91) = (   0.0134959   2.3152018   1.5212422  )
        92           C   tau(  92) = (   0.2284231   1.9917924   0.7339859  )
        93           C   tau(  93) = (   0.5566510   0.5561277   0.0532716  )
        94           F   tau(  94) = (  -0.0601767   2.0187592   1.1606232  )
        95           F   tau(  95) = (   0.1547491   2.2882351   0.3733656  )
        96           F   tau(  96) = (   0.6303250   0.8525703   0.4138919  )
        97           C   tau(  97) = (   0.7049851   2.2358770   0.5276577  )
        98           C   tau(  98) = (   0.4900592   2.0711172   1.3149139  )
        99           C   tau(  99) = (  -0.1348382   0.6354525   1.0468574  )
       100           H   tau( 100) = (   0.7093083   2.3773710   0.5384640  )
       101           H   tau( 101) = (   0.4943824   1.9296233   1.3257215  )
       102           H   tau( 102) = (  -0.1391613   0.4939585   1.0360511  )
       103           H   tau( 103) = (   0.4572618   0.0573413   0.1493511  )
       104           H   tau( 104) = (   0.2423359   1.3783234   0.9366086  )
       105           H   tau( 105) = (   0.1128852   2.8139882   1.4251628  )
       106           C   tau( 106) = (   0.5515146   2.0281314   0.0206769  )
       107           C   tau( 107) = (   0.3365887   2.2788628   0.8079344  )
       108           C   tau( 108) = (   0.0186323   0.8431981   1.5538370  )
       109           H   tau( 109) = (   0.6203092   1.9400459   0.1073015  )
       110           H   tau( 110) = (   0.4053833   2.3669483   0.8945591  )
       111           H   tau( 111) = (  -0.0501623   0.9312836   1.4672123  )
       112           N   tau( 112) = (   0.7589108   2.1502983   0.6682317  )
       113           N   tau( 113) = (   0.5439849   2.1566959   1.4554892  )
       114           N   tau( 114) = (  -0.1887638   0.7210312   0.9062821  )
       115           C   tau( 115) = (   0.5795476   2.2744473   0.2394492  )
       116           C   tau( 116) = (   0.3646217   2.0325470   1.0267055  )
       117           C   tau( 117) = (  -0.0094007   0.5968822   1.3350659  )
       118           C   tau( 118) = (   0.6431065   2.1648994   0.3744008  )
       119           C   tau( 119) = (   0.4281793   2.1420948   1.1616571  )
       120           C   tau( 120) = (  -0.0729582   0.7064301   1.2001143  )
       121           H   tau( 121) = (   0.6383669   2.0247855   0.3583884  )
       122           H   tau( 122) = (   0.4234410   2.2822087   1.1456447  )
       123           H   tau( 123) = (  -0.0682199   0.8465440   1.2161267  )
       124           O   tau( 124) = (  -0.0102471   2.4838500   1.5571011  )
       125           O   tau( 125) = (   0.2046788   1.8231442   0.7698435  )
       126           O   tau( 126) = (   0.5803940   0.3874794   0.0174141  )
       127           H   tau( 127) = (   0.4807401   2.4964574   0.1055364  )
       128           H   tau( 128) = (   0.2658142   1.8105369   0.8927927  )
       129           H   tau( 129) = (   0.0894082   0.3748721   1.4689787  )
       130           O   tau( 130) = (   0.5672106   2.4401938   0.2591025  )
       131           O   tau( 131) = (   0.3522847   1.8668005   1.0463600  )
       132           O   tau( 132) = (   0.0029363   0.4311357   1.3154127  )
       133           C   tau( 133) = (   0.5236225   2.2016787   0.0701810  )
       134           C   tau( 134) = (   0.3086966   2.1053155   0.8574385  )
       135           C   tau( 135) = (   0.0465244   0.6696508   1.5043342  )
       136           C   tau( 136) = (   0.3731022   0.2486010   0.4388174  )
       137           C   tau( 137) = (   0.1581763   1.1870637   1.2260749  )
       138           C   tau( 138) = (   0.1970448   2.6227285   1.1356978  )
       139           H   tau( 139) = (   0.2637025   0.2632734   0.5298797  )
       140           H   tau( 140) = (   0.0487767   1.1723913   1.3171373  )
       141           H   tau( 141) = (   0.3064444   2.6080561   1.0446354  )
       142           H   tau( 142) = (   0.3355241   0.3002569   0.3114374  )
       143           H   tau( 143) = (   0.1205982   1.1354079   1.0986949  )
       144           H   tau( 144) = (   0.2346241   2.5710726   1.2630777  )
       145           H   tau( 145) = (   0.4847002   0.3233779   0.4879104  )
       146           H   tau( 146) = (   0.2697743   1.1122869   1.2751679  )
       147           H   tau( 147) = (   0.0854481   2.5479516   1.0866035  )
       148           C   tau( 148) = (   0.3870001   2.8575478   0.2519423  )
       149           C   tau( 149) = (   0.1720742   1.4494464   1.0391999  )
       150           C   tau( 150) = (   0.1831468   0.0137817   1.3225715  )
       151           H   tau( 151) = (   0.4305988   2.7223360   0.2557667  )
       152           H   tau( 152) = (   0.2156730   1.5846583   1.0430242  )
       153           H   tau( 153) = (   0.1395481   0.1489935   1.3187471  )
       154           H   tau( 154) = (   0.2471458   2.8620066   0.2213166  )
       155           H   tau( 155) = (   0.0322199   1.4449877   1.0085728  )
       156           H   tau( 156) = (   0.3230011   0.0093229   1.3531986  )
       157           C   tau( 157) = (  -0.3072033   0.0918191   1.3657124  )
       158           C   tau( 158) = (  -0.0922775   1.3438457   0.5784548  )
       159           C   tau( 159) = (   0.8773503   2.7795104   0.2088027  )
       160           C   tau( 160) = (   0.5931018   0.1596766   1.0814277  )
       161           C   tau( 161) = (   0.8080277   1.2759882   0.2941701  )
       162           C   tau( 162) = (  -0.0229536   2.7116529   0.4930875  )
       163           H   tau( 163) = (   0.5464585   0.2562582   0.9889950  )
       164           H   tau( 164) = (   0.7613844   1.1794065   0.2017374  )
       165           H   tau( 165) = (   0.0236885   2.6150713   0.5855189  )
       166           C   tau( 166) = (   0.6310610   0.2154021   1.2487155  )
       167           C   tau( 167) = (   0.8459882   1.2202627   0.4614579  )
       168           C   tau( 168) = (  -0.0609141   2.6559274   0.3257983  )
       169           H   tau( 169) = (   0.6155540   0.3510471   1.2865899  )
       170           H   tau( 170) = (   0.8304798   1.0846177   0.4993323  )
       171           H   tau( 171) = (  -0.0454057   2.5202824   0.2879252  )
       172           C   tau( 172) = (   0.4833235   2.8469650   0.5528772  )
       173           C   tau( 173) = (   0.2683963   1.4600293   1.3401335  )
       174           C   tau( 174) = (   0.0868248   0.0243645   1.0216379  )
       175           H   tau( 175) = (   0.5169665   2.7123160   0.5227293  )
       176           H   tau( 176) = (   0.3020406   1.5946782   1.3099868  )
       177           H   tau( 177) = (   0.0531805   0.1590135   1.0517846  )
       178           C   tau( 178) = (  -0.2830930   2.7904554   1.3240627  )
       179           C   tau( 179) = (  -0.0681671   1.5165389   0.5368051  )
       180           C   tau( 180) = (   0.8532412   0.0808741   0.2504511  )
       181           H   tau( 181) = (  -0.2318709   2.6980273   1.4186773  )
       182           H   tau( 182) = (  -0.0169451   1.6089669   0.6314197  )
       183           H   tau( 183) = (   0.8020179   0.1733022   0.1558379  )
       184           C   tau( 184) = (   0.6806661   2.7368006   1.1534597  )
       185           C   tau( 185) = (   0.8955933   1.5701936   0.3662022  )
       186           C   tau( 186) = (  -0.1105191   0.1345289   0.4210541  )
       187           C   tau( 187) = (   0.6160336   2.8576771   1.0279042  )
       188           C   tau( 188) = (   0.8309608   1.4493172   0.2406467  )
       189           C   tau( 189) = (  -0.0458867   0.0136524   0.5466109  )
       190           N   tau( 190) = (   0.4194191   0.0664894   0.4200689  )
       191           N   tau( 191) = (   0.2044932   1.3691754   1.2073264  )
       192           N   tau( 192) = (   0.1507278   2.8048401   1.1544462  )
       193           C   tau( 193) = (   0.5818247   2.7955989   0.8490717  )
       194           C   tau( 194) = (   0.7967505   1.5113954   0.0618154  )
       195           C   tau( 195) = (  -0.0116764   0.0757306   0.7254421  )
       196           O   tau( 196) = (  -0.2912092   2.5702737   1.1096194  )
       197           O   tau( 197) = (  -0.0762833   1.7367205   0.3223619  )
       198           O   tau( 198) = (   0.8613561   0.3010558   0.4648957  )
       199           H   tau( 199) = (   0.6755093   2.5694528   0.9747299  )
       200           H   tau( 200) = (   0.8904351   1.7375414   0.1874724  )
       201           H   tau( 201) = (  -0.1053610   0.3018766   0.5997839  )
       202           F   tau( 202) = (  -0.2669266   0.1437092   1.5319772  )
       203           F   tau( 203) = (  -0.0520007   1.2919555   0.7447196  )
       204           F   tau( 204) = (   0.8370735   2.7276202   0.0425379  )
       205           O   tau( 205) = (   0.6170332   2.6347666   0.8151502  )
       206           O   tau( 206) = (   0.8319591   1.6722277   0.0278927  )
       207           O   tau( 207) = (  -0.0468850   0.2365629   0.7593649  )
       208           C   tau( 208) = (  -0.0099935   2.0794769   1.3210700  )
       209           C   tau( 209) = (   0.2049324   2.2275173   0.5338125  )
       210           C   tau( 210) = (   0.5801417   0.7918526   0.2534451  )
       211           C   tau( 211) = (   0.5115455   0.0359418   0.7195581  )
       212           C   tau( 212) = (   0.2966196   1.3997229   1.5068156  )
       213           C   tau( 213) = (   0.0586028   2.8353877   0.8549558  )
       214           H   tau( 214) = (   0.4791466   0.1691669   0.7528364  )
       215           H   tau( 215) = (   0.2642207   1.2664979   1.5400926  )
       216           H   tau( 216) = (   0.0910004   2.7021626   0.8216787  )

     number of k points=    78
                       cart. coord. in units 2pi/alat
        k(    1) = (   0.0000000   0.0000000   0.0000000), wk =   0.0104167
        k(    2) = (   0.0000000   0.0000000   0.1058527), wk =   0.0208333
        k(    3) = (   0.0000000   0.0000000   0.2117055), wk =   0.0208333
        k(    4) = (   0.0000000   0.0000000  -0.3175582), wk =   0.0104167
        k(    5) = (   0.0000000   0.0870677   0.0000000), wk =   0.0208333
        k(    6) = (   0.0000000   0.0870677   0.1058527), wk =   0.0416667
        k(    7) = (   0.0000000   0.0870677   0.2117055), wk =   0.0416667
        k(    8) = (   0.0000000   0.0870677  -0.3175582), wk =   0.0208333
        k(    9) = (   0.0000000  -0.1741354   0.0000000), wk =   0.0104167
        k(   10) = (   0.0000000  -0.1741354   0.1058527), wk =   0.0208333
        k(   11) = (   0.0000000  -0.1741354   0.2117055), wk =   0.0208333
        k(   12) = (   0.0000000  -0.1741354  -0.3175582), wk =   0.0104167
        k(   13) = (   0.1250000   0.0000000   0.0341258), wk =   0.0208333
        k(   14) = (   0.1250000   0.0000000   0.1399785), wk =   0.0208333
        k(   15) = (   0.1250000   0.0000000   0.2458312), wk =   0.0208333
        k(   16) = (   0.1250000   0.0000000  -0.2834324), wk =   0.0208333
        k(   17) = (   0.1250000   0.0000000  -0.1775797), wk =   0.0208333
        k(   18) = (   0.1250000   0.0000000  -0.0717269), wk =   0.0208333
        k(   19) = (   0.1250000   0.0870677   0.0341258), wk =   0.0416667
        k(   20) = (   0.1250000   0.0870677   0.1399785), wk =   0.0416667
        k(   21) = (   0.1250000   0.0870677   0.2458312), wk =   0.0416667
        k(   22) = (   0.1250000   0.0870677  -0.2834324), wk =   0.0416667
        k(   23) = (   0.1250000   0.0870677  -0.1775797), wk =   0.0416667
        k(   24) = (   0.1250000   0.0870677  -0.0717269), wk =   0.0416667
        k(   25) = (   0.1250000  -0.1741354   0.0341258), wk =   0.0208333
        k(   26) = (   0.1250000  -0.1741354   0.1399785), wk =   0.0208333
        k(   27) = (   0.1250000  -0.1741354   0.2458312), wk =   0.0208333
        k(   28) = (   0.1250000  -0.1741354  -0.2834324), wk =   0.0208333
        k(   29) = (   0.1250000  -0.1741354  -0.1775797), wk =   0.0208333
        k(   30) = (   0.1250000  -0.1741354  -0.0717269), wk =   0.0208333
        k(   31) = (   0.2500000   0.0000000   0.0682516), wk =   0.0208333
        k(   32) = (   0.2500000   0.0000000   0.1741043), wk =   0.0208333
        k(   33) = (   0.2500000   0.0000000   0.2799570), wk =   0.0208333
        k(   34) = (   0.2500000   0.0000000  -0.2493066), wk =   0.0208333
        k(   35) = (   0.2500000   0.0000000  -0.1434539), wk =   0.0208333
        k(   36) = (   0.2500000   0.0000000  -0.0376012), wk =   0.0208333
        k(   37) = (   0.2500000   0.0870677   0.0682516), wk =   0.0416667
        k(   38) = (   0.2500000   0.0870677   0.1741043), wk =   0.0416667
        k(   39) = (   0.2500000   0.0870677   0.2799570), wk =   0.0416667
        k(   40) = (   0.2500000   0.0870677  -0.2493066), wk =   0.0416667
        k(   41) = (   0.2500000   0.0870677  -0.1434539), wk =   0.0416667
        k(   42) = (   0.2500000   0.0870677  -0.0376012), wk =   0.0416667
        k(   43) = (   0.2500000  -0.1741354   0.0682516), wk =   0.0208333
        k(   44) = (   0.2500000  -0.1741354   0.1741043), wk =   0.0208333
        k(   45) = (   0.2500000  -0.1741354   0.2799570), wk =   0.0208333
        k(   46) = (   0.2500000  -0.1741354  -0.2493066), wk =   0.0208333
        k(   47) = (   0.2500000  -0.1741354  -0.1434539), wk =   0.0208333
        k(   48) = (   0.2500000  -0.1741354  -0.0376012), wk =   0.0208333
        k(   49) = (   0.3750000   0.0000000   0.1023774), wk =   0.0208333
        k(   50) = (   0.3750000   0.0000000   0.2082301), wk =   0.0208333
        k(   51) = (   0.3750000   0.0000000   0.3140828), wk =   0.0208333
        k(   52) = (   0.3750000   0.0000000  -0.2151808), wk =   0.0208333
        k(   53) = (   0.3750000   0.0000000  -0.1093281), wk =   0.0208333
        k(   54) = (   0.3750000   0.0000000  -0.0034754), wk =   0.0208333
        k(   55) = (   0.3750000   0.0870677   0.1023774), wk =   0.0416667
        k(   56) = (   0.3750000   0.0870677   0.2082301), wk =   0.0416667
        k(   57) = (   0.3750000   0.0870677   0.3140828), wk =   0.0416667
        k(   58) = (   0.3750000   0.0870677  -0.2151808), wk =   0.0416667
        k(   59) = (   0.3750000   0.0870677  -0.1093281), wk =   0.0416667
        k(   60) = (   0.3750000   0.0870677  -0.0034754), wk =   0.0416667
        k(   61) = (   0.3750000  -0.1741354   0.1023774), wk =   0.0208333
        k(   62) = (   0.3750000  -0.1741354   0.2082301), wk =   0.0208333
        k(   63) = (   0.3750000  -0.1741354   0.3140828), wk =   0.0208333
        k(   64) = (   0.3750000  -0.1741354  -0.2151808), wk =   0.0208333
        k(   65) = (   0.3750000  -0.1741354  -0.1093281), wk =   0.0208333
        k(   66) = (   0.3750000  -0.1741354  -0.0034754), wk =   0.0208333
        k(   67) = (  -0.5000000   0.0000000  -0.1365031), wk =   0.0104167
        k(   68) = (  -0.5000000   0.0000000  -0.0306504), wk =   0.0208333
        k(   69) = (  -0.5000000   0.0000000   0.0752023), wk =   0.0208333
        k(   70) = (  -0.5000000   0.0000000  -0.4540613), wk =   0.0104167
        k(   71) = (  -0.5000000   0.0870677  -0.1365031), wk =   0.0208333
        k(   72) = (  -0.5000000   0.0870677  -0.0306504), wk =   0.0416667
        k(   73) = (  -0.5000000   0.0870677   0.0752023), wk =   0.0416667
        k(   74) = (  -0.5000000   0.0870677  -0.4540613), wk =   0.0208333
        k(   75) = (  -0.5000000  -0.1741354  -0.1365031), wk =   0.0104167
        k(   76) = (  -0.5000000  -0.1741354  -0.0306504), wk =   0.0208333
        k(   77) = (  -0.5000000  -0.1741354   0.0752023), wk =   0.0208333
        k(   78) = (  -0.5000000  -0.1741354  -0.4540613), wk =   0.0104167

     Dense  grid:   309629 G-vectors     FFT dimensions: (  54, 150,  90)

     Estimated max dynamical RAM per process >   17368.37MB

     Check: negative/imaginary core charge=   -0.000670    0.000000

     Initial potential from superposition of free atoms

     starting charge  630.75967, renormalised to  640.00000
     Starting wfc are  576 randomized atomic wfcs

     total cpu time spent up to now is     2512.7 secs

     Self-consistent Calculation

     iteration #  1     ecut=    30.00 Ry     beta=0.70
     Davidson diagonalization with overlap
     ethr =  1.00E-02,  avg # of iterations =  2.0

     total cpu time spent up to now is     7704.7 secs

     total energy              =   -2171.49186521 Ry
     Harris-Foulkes estimate   =   -2199.38227509 Ry
     estimated scf accuracy    <      40.51198794 Ry

     iteration #  2     ecut=    30.00 Ry     beta=0.70
     Davidson diagonalization with overlap
     ethr =  6.33E-03,  avg # of iterations =  4.0

     total cpu time spent up to now is    13503.2 secs

     total energy              =   -2176.03014082 Ry
     Harris-Foulkes estimate   =   -2189.95965991 Ry
     estimated scf accuracy    <      25.66981223 Ry

     iteration #  3     ecut=    30.00 Ry     beta=0.70
     Davidson diagonalization with overlap
     ethr =  4.01E-03,  avg # of iterations =  4.0

     total cpu time spent up to now is    18714.8 secs

     total energy              =   -2182.03116068 Ry
     Harris-Foulkes estimate   =   -2184.34507493 Ry
     estimated scf accuracy    <       4.52797459 Ry

     iteration #  4     ecut=    30.00 Ry     beta=0.70
     Davidson diagonalization with overlap
     ethr =  7.07E-04,  avg # of iterations =  4.0

     total cpu time spent up to now is    23886.3 secs

     total energy              =   -2182.95547103 Ry
     Harris-Foulkes estimate   =   -2183.55092136 Ry
     estimated scf accuracy    <       1.33267305 Ry

     iteration #  5     ecut=    30.00 Ry     beta=0.70
     Davidson diagonalization with overlap
     ethr =  2.08E-04,  avg # of iterations =  4.0

     total cpu time spent up to now is    28734.9 secs

     total energy              =   -2183.21103362 Ry
     Harris-Foulkes estimate   =   -2183.26018096 Ry
     estimated scf accuracy    <       0.10210142 Ry

     iteration #  6     ecut=    30.00 Ry     beta=0.70
     Davidson diagonalization with overlap
     ethr =  1.60E-05,  avg # of iterations =  4.0

     total cpu time spent up to now is    33806.2 secs

     total energy              =   -2183.23376963 Ry
     Harris-Foulkes estimate   =   -2183.24454181 Ry
     estimated scf accuracy    <       0.02402370 Ry

     iteration #  7     ecut=    30.00 Ry     beta=0.70
     Davidson diagonalization with overlap
     ethr =  3.75E-06,  avg # of iterations =  4.0

     total cpu time spent up to now is    38604.1 secs

     total energy              =   -2183.23841780 Ry
     Harris-Foulkes estimate   =   -2183.24137769 Ry
     estimated scf accuracy    <       0.00718956 Ry

     iteration #  8     ecut=    30.00 Ry     beta=0.70
     Davidson diagonalization with overlap
     ethr =  1.12E-06,  avg # of iterations =  4.0

     total cpu time spent up to now is    43238.2 secs

     total energy              =   -2183.23978779 Ry
     Harris-Foulkes estimate   =   -2183.24012916 Ry
     estimated scf accuracy    <       0.00076741 Ry

     iteration #  9     ecut=    30.00 Ry     beta=0.70
     Davidson diagonalization with overlap
     ethr =  1.20E-07,  avg # of iterations =  4.0

     total cpu time spent up to now is    48343.8 secs

     total energy              =   -2183.23996212 Ry
     Harris-Foulkes estimate   =   -2183.24002257 Ry
     estimated scf accuracy    <       0.00013548 Ry

     iteration # 10     ecut=    30.00 Ry     beta=0.70
     Davidson diagonalization with overlap
     ethr =  2.12E-08,  avg # of iterations =  4.0

     total cpu time spent up to now is    53135.4 secs

     total energy              =   -2183.23998908 Ry
     Harris-Foulkes estimate   =   -2183.23999431 Ry
     estimated scf accuracy    <       0.00001030 Ry

     iteration # 11     ecut=    30.00 Ry     beta=0.70
     Davidson diagonalization with overlap
     ethr =  1.61E-09,  avg # of iterations =  3.5

     total cpu time spent up to now is    58299.0 secs

     total energy              =   -2183.23999182 Ry
     Harris-Foulkes estimate   =   -2183.23999244 Ry
     estimated scf accuracy    <       0.00000142 Ry

     iteration # 12     ecut=    30.00 Ry     beta=0.70
     Davidson diagonalization with overlap
     ethr =  2.22E-10,  avg # of iterations =  4.0

     total cpu time spent up to now is    63224.2 secs

     total energy              =   -2183.23999213 Ry
     Harris-Foulkes estimate   =   -2183.23999220 Ry
     estimated scf accuracy    <       0.00000016 Ry

     iteration # 13     ecut=    30.00 Ry     beta=0.70
     Davidson diagonalization with overlap
     ethr =  2.56E-11,  avg # of iterations =  4.0

     total cpu time spent up to now is    68470.6 secs

     End of self-consistent calculation

          k = 0.0000 0.0000 0.0000 ( 38709 PWs)   bands (ev):

   -24.6205 -24.6204 -24.6204 -24.6203 -24.5181 -24.5180 -24.4961 -24.4960
   -20.2524 -20.2523 -20.2520 -20.2518 -20.2090 -20.2088 -20.2021 -20.2019
   -19.0430 -19.0429 -19.0421 -19.0420 -19.0137 -19.0136 -19.0033 -19.0032
   -18.1463 -18.1460 -18.1443 -18.1440 -18.1365 -18.1361 -18.1343 -18.1342
   -15.2742 -15.2741 -15.2738 -15.2737 -15.1729 -15.1728 -15.1646 -15.1645
   -13.3582 -13.3553 -13.3199 -13.3165 -13.3072 -13.3068 -13.2546 -13.2543
   -12.7507 -12.7467 -12.7465 -12.7450 -12.6996 -12.6948 -12.6457 -12.6456
   -12.3523 -12.3517 -12.3204 -12.3153 -12.2351 -12.2324 -12.2319 -12.2272
   -11.9690 -11.9663 -11.9638 -11.9626 -11.8890 -11.8885 -11.8883 -11.8856
   -11.0531 -11.0526 -11.0267 -11.0253 -10.9885 -10.9875 -10.9504 -10.9498
    -9.7392  -9.7336  -9.7235  -9.7187  -9.6592  -9.6591  -9.6574  -9.6498
    -9.0781  -9.0713  -9.0636  -9.0576  -8.9759  -8.9665  -8.9664  -8.9603
    -8.5688  -8.5609  -8.4853  -8.4684  -8.3904  -8.3553  -8.3368  -8.3100
    -7.5746  -7.5608  -7.5481  -7.5102  -7.4664  -7.4637  -7.4623  -7.4175
    -7.1884  -7.1754  -7.1695  -7.1409  -7.1097  -7.0906  -7.0778  -7.0748
    -6.8906  -6.8675  -6.8657  -6.8543  -6.8394  -6.8254  -6.7897  -6.7639
    -6.3888  -6.3646  -6.3582  -6.3534  -6.2982  -6.2953  -6.2939  -6.2753
    -6.0724  -6.0126  -5.9942  -5.9759  -5.9236  -5.9143  -5.8933  -5.8785
    -5.8318  -5.7957  -5.7542  -5.7333  -5.7003  -5.6851  -5.6521  -5.6348
    -5.6339  -5.5802  -5.5199  -5.4922  -5.4862  -5.4742  -5.4453  -5.4425
    -5.1488  -5.1238  -5.1029  -5.0837  -5.0815  -5.0725  -5.0471  -5.0234
    -5.0184  -5.0141  -4.9746  -4.9662  -4.9515  -4.9333  -4.8695  -4.8569
    -4.5833  -4.5777  -4.5322  -4.5305  -4.5076  -4.4976  -4.4739  -4.4278
    -4.3909  -4.3800  -4.3701  -4.3397  -4.2814  -4.2534  -4.2532  -4.2390
    -4.2374  -4.2337  -4.1697  -4.1263  -4.0406  -4.0342  -4.0328  -4.0291
    -4.0044  -4.0001  -3.9680  -3.9428  -3.8915  -3.8656  -3.8518  -3.8472
    -3.8447  -3.8147  -3.8129  -3.8025  -3.7682  -3.7574  -3.7480  -3.7401
    -3.7120  -3.6865  -3.6794  -3.6662  -3.6564  -3.6331  -3.6277  -3.6151
    -3.5244  -3.4922  -3.4732  -3.4687  -3.4678  -3.4656  -3.4635  -3.4478
    -3.2441  -3.1823  -3.1776  -3.1669  -3.1518  -3.1145  -3.1112  -3.0768
    -3.0135  -3.0059  -3.0033  -2.9826  -2.9729  -2.9541  -2.9479  -2.9371
    -2.9024  -2.8957  -2.8768  -2.8679  -2.8648  -2.8474  -2.8125  -2.7988
    -2.7020  -2.6868  -2.6831  -2.6419  -2.5997  -2.5973  -2.5950  -2.5639
    -2.2365  -2.1808  -2.1745  -2.1392  -2.0681  -2.0492  -2.0242  -2.0067
    -1.9704  -1.9515  -1.9284  -1.9145  -1.8771  -1.8758  -1.7991  -1.7972
    -1.6643  -1.6552  -1.6281  -1.6094  -1.6073  -1.5878  -1.5716  -1.5697
    -0.2991  -0.2911  -0.2738  -0.2692  -0.2611  -0.2527  -0.0462  -0.0453
     0.1261   0.1285   0.1296   0.1367   0.2066   0.2132   0.2158   0.2158
     0.3799   0.4021   0.4511   0.4756   0.5201   0.5347   0.5418   0.5420
     0.9164   0.9297   0.9772   0.9842   1.1159   1.1227   1.1564   1.1582

          k = 0.0000 0.0000 0.1059 ( 38737 PWs)   bands (ev):

   -24.6205 -24.6204 -24.6204 -24.6203 -24.5182 -24.5180 -24.4962 -24.4960
   -20.2524 -20.2523 -20.2520 -20.2518 -20.2090 -20.2089 -20.2021 -20.2019
   -19.0429 -19.0428 -19.0421 -19.0420 -19.0138 -19.0137 -19.0033 -19.0032
   -18.1462 -18.1460 -18.1444 -18.1441 -18.1364 -18.1360 -18.1345 -18.1343
   -15.2742 -15.2740 -15.2738 -15.2737 -15.1728 -15.1727 -15.1645 -15.1644
   -13.3571 -13.3540 -13.3234 -13.3198 -13.3126 -13.3121 -13.2569 -13.2566
   -12.7472 -12.7440 -12.7437 -12.7430 -12.6933 -12.6899 -12.6439 -12.6438
   -12.3484 -12.3466 -12.3205 -12.3148 -12.2332 -12.2309 -12.2302 -12.2261
   -11.9699 -11.9676 -11.9609 -11.9600 -11.8885 -11.8882 -11.8878 -11.8855
   -11.0597 -11.0584 -11.0371 -11.0354 -10.9987 -10.9974 -10.9636 -10.9632
    -9.7262  -9.7200  -9.7118  -9.7073  -9.6452  -9.6449  -9.6402  -9.6345
    -9.0896  -9.0729  -9.0695  -9.0620  -8.9796  -8.9694  -8.9616  -8.9582
    -8.5721  -8.5495  -8.4935  -8.4729  -8.3907  -8.3689  -8.3442  -8.3109
    -7.5746  -7.5741  -7.5465  -7.5205  -7.4827  -7.4663  -7.4531  -7.4276
    -7.1935  -7.1892  -7.1752  -7.1510  -7.1213  -7.0934  -7.0865  -7.0829
    -6.8894  -6.8640  -6.8506  -6.8429  -6.8227  -6.8168  -6.7801  -6.7502
    -6.3974  -6.3681  -6.3657  -6.3604  -6.3075  -6.2999  -6.2925  -6.2687
    -6.0463  -6.0076  -5.9913  -5.9498  -5.9308  -5.9078  -5.8696  -5.8546
    -5.8232  -5.7836  -5.7536  -5.7112  -5.7048  -5.6933  -5.6652  -5.6475
    -5.6286  -5.5884  -5.5294  -5.5041  -5.4860  -5.4828  -5.4505  -5.4440
    -5.1470  -5.1247  -5.0982  -5.0818  -5.0782  -5.0624  -5.0399  -5.0339
    -5.0199  -5.0144  -4.9798  -4.9685  -4.9487  -4.9354  -4.8730  -4.8609
    -4.5934  -4.5793  -4.5572  -4.5468  -4.5109  -4.5082  -4.4893  -4.4374
    -4.3919  -4.3714  -4.3624  -4.3304  -4.2740  -4.2584  -4.2423  -4.2313
    -4.2211  -4.2046  -4.1597  -4.1224  -4.0813  -4.0410  -4.0287  -4.0285
    -4.0106  -3.9988  -3.9740  -3.9398  -3.9161  -3.8779  -3.8544  -3.8341
    -3.8328  -3.8280  -3.7983  -3.7793  -3.7654  -3.7529  -3.7345  -3.7338
    -3.7057  -3.6793  -3.6719  -3.6669  -3.6553  -3.6316  -3.6284  -3.6138
    -3.5338  -3.5251  -3.4908  -3.4870  -3.4724  -3.4657  -3.4590  -3.4471
    -3.2469  -3.1941  -3.1823  -3.1618  -3.1492  -3.1275  -3.1129  -3.0815
    -3.0241  -3.0101  -3.0009  -2.9839  -2.9767  -2.9642  -2.9423  -2.9302
    -2.9078  -2.8881  -2.8703  -2.8602  -2.8541  -2.8504  -2.8012  -2.7870
    -2.6945  -2.6835  -2.6803  -2.6403  -2.5932  -2.5920  -2.5840  -2.5588
    -2.2495  -2.2031  -2.1815  -2.1552  -2.0611  -2.0360  -2.0356  -1.9970
    -1.9667  -1.9542  -1.9258  -1.9134  -1.8753  -1.8753  -1.8076  -1.8055
    -1.6564  -1.6464  -1.6246  -1.6079  -1.6073  -1.5922  -1.5686  -1.5684
    -0.2859  -0.2805  -0.2734  -0.2618  -0.2616  -0.2497  -0.0611  -0.0600
     0.1311   0.1342   0.1359   0.1430   0.2019   0.2084   0.2117   0.2123
     0.3893   0.4097   0.4500   0.4718   0.5200   0.5390   0.5400   0.5478
     0.9240   0.9374   0.9781   0.9862   1.0983   1.1047   1.1464   1.1485

          k = 0.0000 0.0000 0.2117 ( 38732 PWs)   bands (ev):

   -24.6205 -24.6204 -24.6204 -24.6203 -24.5181 -24.5180 -24.4962 -24.4960
   -20.2523 -20.2522 -20.2520 -20.2519 -20.2091 -20.2089 -20.2021 -20.2019
   -19.0426 -19.0426 -19.0422 -19.0421 -19.0139 -19.0138 -19.0034 -19.0033
   -18.1460 -18.1458 -18.1445 -18.1443 -18.1360 -18.1357 -18.1349 -18.1347
   -15.2740 -15.2738 -15.2738 -15.2736 -15.1725 -15.1725 -15.1642 -15.1642
   -13.3526 -13.3492 -13.3319 -13.3259 -13.3255 -13.3232 -13.2616 -13.2613
   -12.7403 -12.7389 -12.7388 -12.7384 -12.6797 -12.6783 -12.6420 -12.6418
   -12.3383 -12.3346 -12.3220 -12.3159 -12.2289 -12.2278 -12.2267 -12.2241
   -11.9701 -11.9688 -11.9565 -11.9561 -11.8876 -11.8875 -11.8866 -11.8853
   -11.0710 -11.0694 -11.0587 -11.0565 -11.0157 -11.0139 -10.9928 -10.9925
    -9.6985  -9.6922  -9.6892  -9.6849  -9.6157  -9.6149  -9.6058  -9.6040
    -9.1049  -9.0929  -9.0734  -9.0718  -8.9834  -8.9762  -8.9563  -8.9553
    -8.5661  -8.5300  -8.5164  -8.4870  -8.3899  -8.3878  -8.3556  -8.3241
    -7.5883  -7.5755  -7.5503  -7.5426  -7.4928  -7.4760  -7.4538  -7.4498
    -7.2110  -7.2089  -7.1761  -7.1664  -7.1350  -7.1202  -7.0937  -7.0922
    -6.8863  -6.8711  -6.8269  -6.8237  -6.7911  -6.7893  -6.7509  -6.7241
    -6.4122  -6.3893  -6.3785  -6.3736  -6.3173  -6.3101  -6.2859  -6.2668
    -5.9944  -5.9910  -5.9849  -5.9559  -5.8812  -5.8706  -5.8315  -5.8289
    -5.7946  -5.7479  -5.7392  -5.7153  -5.7113  -5.6982  -5.6691  -5.6685
    -5.6245  -5.5919  -5.5653  -5.5249  -5.5004  -5.4958  -5.4663  -5.4510
    -5.1397  -5.1280  -5.0877  -5.0791  -5.0715  -5.0593  -5.0442  -5.0398
    -5.0230  -5.0198  -4.9718  -4.9611  -4.9392  -4.9381  -4.8799  -4.8706
    -4.6071  -4.5983  -4.5926  -4.5780  -4.5301  -4.5291  -4.5061  -4.4634
    -4.3767  -4.3494  -4.3421  -4.3296  -4.2571  -4.2333  -4.2280  -4.2111
    -4.1861  -4.1712  -4.1532  -4.1276  -4.1199  -4.0750  -4.0421  -4.0243
    -4.0056  -4.0034  -3.9920  -3.9556  -3.9269  -3.8953  -3.8355  -3.8350
    -3.8280  -3.8218  -3.8103  -3.7736  -3.7463  -3.7370  -3.7063  -3.6938
    -3.6819  -3.6694  -3.6639  -3.6528  -3.6497  -3.6299  -3.6256  -3.6056
    -3.5670  -3.5648  -3.5282  -3.5121  -3.5007  -3.4948  -3.4558  -3.4453
    -3.2489  -3.2185  -3.1880  -3.1605  -3.1464  -3.1458  -3.1129  -3.0873
    -3.0436  -3.0279  -2.9969  -2.9879  -2.9796  -2.9723  -2.9287  -2.9209
    -2.9031  -2.8795  -2.8661  -2.8651  -2.8429  -2.8337  -2.7843  -2.7815
    -2.6699  -2.6685  -2.6668  -2.6372  -2.5823  -2.5804  -2.5644  -2.5499
    -2.2721  -2.2452  -2.1971  -2.1848  -2.0531  -2.0452  -2.0129  -1.9930
    -1.9600  -1.9583  -1.9187  -1.9119  -1.8753  -1.8729  -1.8211  -1.8202
    -1.6375  -1.6266  -1.6177  -1.6098  -1.6025  -1.5964  -1.5706  -1.5704
    -0.2722  -0.2712  -0.2705  -0.2631  -0.2216  -0.2211  -0.1023  -0.1011
     0.1462   0.1468   0.1524   0.1575   0.1905   0.1952   0.2007   0.2020
     0.4126   0.4266   0.4475   0.4599   0.5217   0.5346   0.5516   0.5563
     0.9471   0.9616   0.9804   0.9933   1.0544   1.0593   1.1248   1.1269

          k = 0.0000 0.0000-0.3176 ( 38746 PWs)   bands (ev):

   -24.6205 -24.6204 -24.6204 -24.6204 -24.5182 -24.5181 -24.4962 -24.4960
   -20.2522 -20.2521 -20.2520 -20.2520 -20.2091 -20.2090 -20.2021 -20.2020
   -19.0424 -19.0424 -19.0423 -19.0422 -19.0139 -19.0138 -19.0034 -19.0033
   -18.1458 -18.1458 -18.1446 -18.1445 -18.1355 -18.1353 -18.1353 -18.1351
   -15.2739 -15.2738 -15.2737 -15.2736 -15.1724 -15.1724 -15.1641 -15.1641
   -13.3434 -13.3433 -13.3394 -13.3393 -13.3286 -13.3285 -13.2639 -13.2638
   -12.7367 -12.7367 -12.7363 -12.7362 -12.6715 -12.6714 -12.6423 -12.6422
   -12.3280 -12.3279 -12.3225 -12.3225 -12.2265 -12.2264 -12.2241 -12.2241
   -11.9695 -11.9695 -11.9544 -11.9543 -11.8872 -11.8871 -11.8856 -11.8855
   -11.0729 -11.0729 -11.0710 -11.0710 -11.0175 -11.0174 -11.0127 -11.0126
    -9.6808  -9.6808  -9.6764  -9.6764  -9.6003  -9.6003  -9.5881  -9.5881
    -9.1076  -9.1076  -9.0769  -9.0769  -8.9823  -8.9823  -8.9545  -8.9545
    -8.5454  -8.5454  -8.5077  -8.5077  -8.3927  -8.3927  -8.3463  -8.3463
    -7.5854  -7.5854  -7.5528  -7.5528  -7.4885  -7.4885  -7.4593  -7.4592
    -7.2175  -7.2175  -7.1756  -7.1756  -7.1359  -7.1359  -7.0969  -7.0969
    -6.8810  -6.8810  -6.8145  -6.8145  -6.7782  -6.7782  -6.7203  -6.7203
    -6.4118  -6.4117  -6.3825  -6.3824  -6.3185  -6.3185  -6.2749  -6.2748
    -5.9851  -5.9850  -5.9618  -5.9618  -5.8462  -5.8462  -5.8207  -5.8207
    -5.7514  -5.7513  -5.7163  -5.7163  -5.7069  -5.7068  -5.6875  -5.6874
    -5.6039  -5.6039  -5.5621  -5.5621  -5.5000  -5.4999  -5.4718  -5.4718
    -5.1336  -5.1335  -5.0775  -5.0775  -5.0724  -5.0724  -5.0434  -5.0434
    -5.0241  -5.0241  -4.9528  -4.9528  -4.9402  -4.9402  -4.8808  -4.8807
    -4.6165  -4.6164  -4.5952  -4.5951  -4.5431  -4.5431  -4.4921  -4.4921
    -4.3498  -4.3498  -4.3344  -4.3344  -4.2317  -4.2317  -4.1951  -4.1951
    -4.1884  -4.1884  -4.1286  -4.1286  -4.1223  -4.1223  -4.0272  -4.0272
    -4.0161  -4.0161  -3.9790  -3.9789  -3.9156  -3.9156  -3.8446  -3.8445
    -3.8052  -3.8052  -3.7874  -3.7873  -3.7526  -3.7526  -3.6777  -3.6776
    -3.6701  -3.6700  -3.6400  -3.6400  -3.6254  -3.6254  -3.6175  -3.6175
    -3.5767  -3.5767  -3.5573  -3.5572  -3.5098  -3.5097  -3.4521  -3.4521
    -3.2403  -3.2402  -3.1796  -3.1796  -3.1461  -3.1461  -3.0994  -3.0993
    -3.0461  -3.0461  -2.9921  -2.9920  -2.9781  -2.9780  -2.9188  -2.9188
    -2.8856  -2.8856  -2.8697  -2.8696  -2.8310  -2.8310  -2.7821  -2.7820
    -2.6587  -2.6587  -2.6421  -2.6421  -2.5763  -2.5762  -2.5504  -2.5504
    -2.2745  -2.2745  -2.2024  -2.2024  -2.0494  -2.0494  -1.9976  -1.9976
    -1.9590  -1.9590  -1.9129  -1.9128  -1.8743  -1.8743  -1.8267  -1.8267
    -1.6199  -1.6199  -1.6149  -1.6149  -1.5944  -1.5944  -1.5774  -1.5774
    -0.2699  -0.2699  -0.2668  -0.2668  -0.1697  -0.1696  -0.1531  -0.1530
     0.1602   0.1602   0.1631   0.1631   0.1852   0.1853   0.1902   0.1903
     0.4390   0.4390   0.4410   0.4410   0.5275   0.5275   0.5591   0.5591
     0.9750   0.9751   1.0031   1.0031   1.0125   1.0125   1.1138   1.1138

          k = 0.0000 0.0871 0.0000 ( 38725 PWs)   bands (ev):

   -24.6205 -24.6204 -24.6204 -24.6203 -24.5181 -24.5180 -24.4962 -24.4961
   -20.2525 -20.2523 -20.2519 -20.2518 -20.2090 -20.2089 -20.2021 -20.2019
   -19.0430 -19.0429 -19.0421 -19.0420 -19.0137 -19.0136 -19.0033 -19.0032
   -18.1462 -18.1461 -18.1443 -18.1440 -18.1364 -18.1362 -18.1343 -18.1342
   -15.2742 -15.2742 -15.2738 -15.2737 -15.1729 -15.1728 -15.1646 -15.1645
   -13.3578 -13.3557 -13.3194 -13.3170 -13.3071 -13.3069 -13.2546 -13.2544
   -12.7500 -12.7467 -12.7466 -12.7459 -12.6988 -12.6955 -12.6457 -12.6456
   -12.3522 -12.3518 -12.3197 -12.3160 -12.2353 -12.2342 -12.2298 -12.2273
   -11.9690 -11.9672 -11.9631 -11.9625 -11.8900 -11.8891 -11.8870 -11.8854
   -11.0531 -11.0527 -11.0265 -11.0255 -10.9884 -10.9876 -10.9504 -10.9499
    -9.7387  -9.7348  -9.7225  -9.7193  -9.6593  -9.6591  -9.6563  -9.6509
    -9.0774  -9.0727  -9.0626  -9.0584  -8.9735  -8.9668  -8.9662  -8.9620
    -8.5675  -8.5617  -8.4836  -8.4715  -8.3868  -8.3641  -8.3288  -8.3121
    -7.5730  -7.5631  -7.5444  -7.5191  -7.4686  -7.4648  -7.4497  -7.4217
    -7.1875  -7.1793  -7.1648  -7.1463  -7.1054  -7.0927  -7.0776  -7.0751
    -6.8887  -6.8732  -6.8635  -6.8549  -6.8369  -6.8271  -6.7851  -6.7671
    -6.3868  -6.3718  -6.3535  -6.3525  -6.2990  -6.2955  -6.2915  -6.2778
    -6.0635  -6.0129  -6.0060  -5.9649  -5.9481  -5.9094  -5.8929  -5.8777
    -5.8142  -5.7898  -5.7590  -5.7430  -5.6945  -5.6823  -5.6560  -5.6464
    -5.6195  -5.5875  -5.5191  -5.5020  -5.4803  -5.4691  -5.4453  -5.4440
    -5.1472  -5.1309  -5.0957  -5.0829  -5.0825  -5.0756  -5.0447  -5.0295
    -5.0142  -5.0130  -4.9724  -4.9601  -4.9550  -4.9376  -4.8673  -4.8581
    -4.5837  -4.5795  -4.5318  -4.5301  -4.5061  -4.4858  -4.4795  -4.4399
    -4.3909  -4.3874  -4.3563  -4.3404  -4.2777  -4.2583  -4.2528  -4.2420
    -4.2341  -4.2323  -4.1630  -4.1329  -4.0491  -4.0456  -4.0237  -4.0193
    -4.0031  -3.9985  -3.9654  -3.9465  -3.8873  -3.8674  -3.8592  -3.8529
    -3.8430  -3.8220  -3.8077  -3.7974  -3.7694  -3.7679  -3.7422  -3.7415
    -3.7110  -3.6955  -3.6680  -3.6565  -3.6561  -3.6323  -3.6292  -3.6216
    -3.5179  -3.4848  -3.4754  -3.4731  -3.4691  -3.4676  -3.4609  -3.4485
    -3.2415  -3.2078  -3.1771  -3.1549  -3.1307  -3.1176  -3.1161  -3.0777
    -3.0200  -3.0088  -2.9933  -2.9829  -2.9722  -2.9626  -2.9518  -2.9428
    -2.9001  -2.8947  -2.8754  -2.8737  -2.8488  -2.8373  -2.8184  -2.8028
    -2.7002  -2.6899  -2.6791  -2.6510  -2.5973  -2.5955  -2.5921  -2.5680
    -2.2324  -2.1924  -2.1745  -2.1437  -2.0503  -2.0442  -2.0249  -2.0075
    -1.9715  -1.9458  -1.9439  -1.9139  -1.8768  -1.8757  -1.7984  -1.7972
    -1.6628  -1.6563  -1.6259  -1.6137  -1.6036  -1.5911  -1.5706  -1.5691
    -0.2979  -0.2923  -0.2736  -0.2707  -0.2590  -0.2534  -0.0461  -0.0453
     0.1262   0.1276   0.1311   0.1357   0.2075   0.2121   0.2158   0.2159
     0.3829   0.3984   0.4547   0.4715   0.5238   0.5347   0.5404   0.5411
     0.9181   0.9274   0.9785   0.9834   1.1168   1.1217   1.1568   1.1580

          k = 0.0000 0.0871 0.1059 ( 38728 PWs)   bands (ev):

   -24.6205 -24.6204 -24.6204 -24.6203 -24.5182 -24.5180 -24.4962 -24.4960
   -20.2524 -20.2523 -20.2520 -20.2519 -20.2090 -20.2089 -20.2021 -20.2019
   -19.0429 -19.0428 -19.0421 -19.0420 -19.0138 -19.0137 -19.0033 -19.0032
   -18.1461 -18.1460 -18.1443 -18.1441 -18.1363 -18.1361 -18.1345 -18.1344
   -15.2742 -15.2741 -15.2738 -15.2737 -15.1728 -15.1727 -15.1645 -15.1644
   -13.3566 -13.3545 -13.3229 -13.3203 -13.3125 -13.3122 -13.2569 -13.2567
   -12.7467 -12.7440 -12.7437 -12.7435 -12.6928 -12.6903 -12.6439 -12.6438
   -12.3481 -12.3469 -12.3196 -12.3157 -12.2333 -12.2322 -12.2286 -12.2263
   -11.9697 -11.9681 -11.9606 -11.9599 -11.8895 -11.8888 -11.8865 -11.8851
   -11.0595 -11.0586 -11.0368 -11.0356 -10.9985 -10.9976 -10.9636 -10.9632
    -9.7255  -9.7213  -9.7108  -9.7077  -9.6452  -9.6450  -9.6393  -9.6352
    -9.0872  -9.0737  -9.0708  -9.0635  -8.9765  -8.9687  -8.9624  -8.9599
    -8.5691  -8.5532  -8.4911  -8.4769  -8.3873  -8.3714  -8.3388  -8.3151
    -7.5738  -7.5716  -7.5466  -7.5289  -7.4770  -7.4657  -7.4503  -7.4312
    -7.1917  -7.1875  -7.1755  -7.1590  -7.1128  -7.0916  -7.0900  -7.0843
    -6.8863  -6.8684  -6.8502  -6.8435  -6.8225  -6.8175  -6.7744  -6.7537
    -6.3945  -6.3761  -6.3622  -6.3602  -6.3051  -6.2950  -6.2946  -6.2731
    -6.0390  -6.0059  -5.9971  -5.9550  -5.9349  -5.8996  -5.8748  -5.8633
    -5.8068  -5.7761  -5.7562  -5.7227  -5.7034  -5.6876  -5.6684  -5.6521
    -5.6226  -5.5952  -5.5242  -5.5040  -5.4879  -5.4778  -5.4525  -5.4465
    -5.1448  -5.1306  -5.0923  -5.0805  -5.0794  -5.0671  -5.0385  -5.0349
    -5.0176  -5.0142  -4.9756  -4.9658  -4.9508  -4.9392  -4.8709  -4.8622
    -4.5922  -4.5821  -4.5546  -4.5479  -4.5136  -4.4940  -4.4931  -4.4477
    -4.3915  -4.3825  -4.3473  -4.3313  -4.2712  -4.2612  -4.2360  -4.2305
    -4.2245  -4.2095  -4.1532  -4.1282  -4.0775  -4.0493  -4.0358  -4.0169
    -4.0106  -3.9965  -3.9698  -3.9430  -3.9108  -3.8784  -3.8558  -3.8514
    -3.8443  -3.8223  -3.7973  -3.7734  -3.7650  -3.7530  -3.7414  -3.7242
    -3.7015  -3.6855  -3.6690  -3.6569  -3.6528  -3.6327  -3.6295  -3.6182
    -3.5316  -3.5204  -3.5007  -3.4902  -3.4718  -3.4632  -3.4562  -3.4455
    -3.2432  -3.2070  -3.1879  -3.1569  -3.1345  -3.1252  -3.1174  -3.0823
    -3.0276  -3.0128  -2.9968  -2.9850  -2.9758  -2.9703  -2.9438  -2.9305
    -2.9075  -2.8897  -2.8720  -2.8645  -2.8453  -2.8319  -2.8081  -2.7917
    -2.6931  -2.6854  -2.6755  -2.6490  -2.5914  -2.5897  -2.5821  -2.5623
    -2.2439  -2.1998  -2.1956  -2.1600  -2.0464  -2.0347  -2.0299  -1.9995
    -1.9692  -1.9500  -1.9377  -1.9134  -1.8755  -1.8748  -1.8069  -1.8055
    -1.6547  -1.6476  -1.6230  -1.6123  -1.6035  -1.5939  -1.5687  -1.5676
    -0.2849  -0.2810  -0.2729  -0.2668  -0.2566  -0.2504  -0.0609  -0.0602
     0.1318   0.1341   0.1365   0.1417   0.2032   0.2083   0.2108   0.2122
     0.3920   0.4062   0.4533   0.4683   0.5233   0.5359   0.5420   0.5468
     0.9257   0.9351   0.9796   0.9852   1.0992   1.1037   1.1467   1.1482

          k = 0.0000 0.0871 0.2117 ( 38717 PWs)   bands (ev):

   -24.6205 -24.6204 -24.6204 -24.6203 -24.5182 -24.5180 -24.4961 -24.4960
   -20.2523 -20.2522 -20.2520 -20.2519 -20.2091 -20.2089 -20.2021 -20.2019
   -19.0426 -19.0426 -19.0422 -19.0421 -19.0138 -19.0138 -19.0034 -19.0033
   -18.1459 -18.1458 -18.1445 -18.1443 -18.1359 -18.1357 -18.1348 -18.1347
   -15.2740 -15.2739 -15.2737 -15.2736 -15.1725 -15.1725 -15.1642 -15.1642
   -13.3521 -13.3497 -13.3311 -13.3274 -13.3245 -13.3233 -13.2615 -13.2613
   -12.7401 -12.7391 -12.7387 -12.7384 -12.6794 -12.6785 -12.6420 -12.6418
   -12.3378 -12.3352 -12.3211 -12.3168 -12.2289 -12.2280 -12.2263 -12.2244
   -11.9699 -11.9690 -11.9563 -11.9560 -11.8887 -11.8883 -11.8854 -11.8847
   -11.0708 -11.0696 -11.0584 -11.0568 -11.0154 -11.0141 -10.9927 -10.9925
    -9.6976  -9.6933  -9.6882  -9.6854  -9.6156  -9.6149  -9.6055  -9.6042
    -9.1013  -9.0904  -9.0793  -9.0745  -8.9789  -8.9733  -8.9585  -8.9575
    -8.5622  -8.5382  -8.5111  -8.4924  -8.3877  -8.3799  -8.3555  -8.3300
    -7.5844  -7.5732  -7.5555  -7.5476  -7.4863  -7.4727  -7.4570  -7.4517
    -7.2073  -7.2051  -7.1817  -7.1772  -7.1242  -7.1147  -7.0976  -7.0945
    -6.8826  -6.8704  -6.8365  -6.8275  -6.7900  -6.7798  -6.7483  -6.7281
    -6.4087  -6.3887  -6.3851  -6.3758  -6.3114  -6.3023  -6.2895  -6.2723
    -5.9965  -5.9901  -5.9803  -5.9580  -5.8764  -5.8680  -5.8425  -5.8341
    -5.7840  -5.7468  -5.7378  -5.7170  -5.7116  -5.6981  -5.6763  -5.6687
    -5.6227  -5.6003  -5.5492  -5.5213  -5.5011  -5.4987  -5.4674  -5.4559
    -5.1385  -5.1309  -5.0844  -5.0771  -5.0729  -5.0624  -5.0451  -5.0371
    -5.0235  -5.0198  -4.9680  -4.9597  -4.9423  -4.9401  -4.8784  -4.8723
    -4.6052  -4.5957  -4.5937  -4.5809  -4.5327  -4.5200  -4.5050  -4.4711
    -4.3747  -4.3595  -4.3324  -4.3284  -4.2551  -4.2411  -4.2160  -4.2129
    -4.1954  -4.1790  -4.1478  -4.1261  -4.1133  -4.0834  -4.0355  -4.0181
    -4.0108  -4.0023  -3.9820  -3.9510  -3.9348  -3.9017  -3.8645  -3.8605
    -3.8217  -3.8110  -3.7756  -3.7698  -3.7537  -3.7282  -3.7084  -3.6992
    -3.6821  -3.6723  -3.6562  -3.6495  -3.6441  -3.6329  -3.6239  -3.6069
    -3.5657  -3.5640  -3.5421  -3.5296  -3.4873  -3.4813  -3.4593  -3.4478
    -3.2434  -3.2123  -3.2036  -3.1721  -3.1391  -3.1345  -3.1135  -3.0895
    -3.0430  -3.0284  -2.9980  -2.9896  -2.9785  -2.9742  -2.9281  -2.9172
    -2.9053  -2.8865  -2.8706  -2.8672  -2.8314  -2.8191  -2.7907  -2.7851
    -2.6729  -2.6687  -2.6614  -2.6425  -2.5789  -2.5786  -2.5636  -2.5527
    -2.2643  -2.2371  -2.2132  -2.1924  -2.0429  -2.0398  -2.0107  -1.9936
    -1.9640  -1.9554  -1.9265  -1.9137  -1.8747  -1.8729  -1.8207  -1.8200
    -1.6354  -1.6278  -1.6176  -1.6097  -1.6025  -1.5966  -1.5710  -1.5700
    -0.2723  -0.2716  -0.2692  -0.2642  -0.2215  -0.2212  -0.1021  -0.1013
     0.1470   0.1481   0.1517   0.1559   0.1922   0.1962   0.1994   0.2010
     0.4144   0.4242   0.4495   0.4581   0.5238   0.5328   0.5524   0.5556
     0.9487   0.9586   0.9832   0.9919   1.0552   1.0586   1.1251   1.1266

          k = 0.0000 0.0871-0.3176 ( 38734 PWs)   bands (ev):

   -24.6205 -24.6204 -24.6204 -24.6204 -24.5182 -24.5180 -24.4961 -24.4960
   -20.2522 -20.2521 -20.2520 -20.2520 -20.2091 -20.2090 -20.2021 -20.2019
   -19.0424 -19.0424 -19.0423 -19.0422 -19.0139 -19.0138 -19.0034 -19.0033
   -18.1458 -18.1458 -18.1446 -18.1445 -18.1355 -18.1353 -18.1353 -18.1351
   -15.2739 -15.2738 -15.2736 -15.2736 -15.1724 -15.1724 -15.1641 -15.1641
   -13.3433 -13.3433 -13.3394 -13.3394 -13.3285 -13.3285 -13.2639 -13.2638
   -12.7369 -12.7369 -12.7361 -12.7361 -12.6715 -12.6714 -12.6423 -12.6422
   -12.3272 -12.3272 -12.3233 -12.3233 -12.2262 -12.2261 -12.2244 -12.2244
   -11.9695 -11.9695 -11.9543 -11.9543 -11.8881 -11.8881 -11.8847 -11.8846
   -11.0729 -11.0729 -11.0710 -11.0710 -11.0174 -11.0174 -11.0127 -11.0127
    -9.6803  -9.6802  -9.6770  -9.6769  -9.6003  -9.6002  -9.5881  -9.5881
    -9.1043  -9.1043  -9.0819  -9.0819  -8.9778  -8.9778  -8.9571  -8.9571
    -8.5429  -8.5429  -8.5128  -8.5128  -8.3854  -8.3853  -8.3511  -8.3511
    -7.5816  -7.5816  -7.5586  -7.5586  -7.4833  -7.4833  -7.4624  -7.4624
    -7.2134  -7.2134  -7.1851  -7.1851  -7.1273  -7.1273  -7.1001  -7.1001
    -6.8777  -6.8776  -6.8255  -6.8255  -6.7674  -6.7673  -6.7233  -6.7232
    -6.4088  -6.4088  -6.3889  -6.3889  -6.3100  -6.3100  -6.2799  -6.2799
    -5.9862  -5.9862  -5.9600  -5.9600  -5.8423  -5.8422  -5.8240  -5.8240
    -5.7513  -5.7513  -5.7247  -5.7246  -5.7024  -5.7023  -5.6861  -5.6861
    -5.6018  -5.6018  -5.5599  -5.5599  -5.5006  -5.5005  -5.4746  -5.4746
    -5.1344  -5.1343  -5.0760  -5.0760  -5.0726  -5.0726  -5.0408  -5.0408
    -5.0271  -5.0271  -4.9510  -4.9510  -4.9420  -4.9420  -4.8809  -4.8808
    -4.6135  -4.6135  -4.5984  -4.5984  -4.5381  -4.5380  -4.4963  -4.4962
    -4.3469  -4.3469  -4.3357  -4.3357  -4.2331  -4.2330  -4.2027  -4.2027
    -4.1815  -4.1815  -4.1404  -4.1404  -4.1120  -4.1120  -4.0226  -4.0225
    -4.0078  -4.0078  -3.9821  -3.9821  -3.9188  -3.9188  -3.8741  -3.8741
    -3.7929  -3.7928  -3.7760  -3.7760  -3.7417  -3.7417  -3.6797  -3.6796
    -3.6744  -3.6743  -3.6416  -3.6416  -3.6255  -3.6254  -3.6113  -3.6113
    -3.5800  -3.5800  -3.5685  -3.5684  -3.4971  -3.4970  -3.4575  -3.4575
    -3.2338  -3.2338  -3.1924  -3.1924  -3.1391  -3.1390  -3.1009  -3.1009
    -3.0434  -3.0434  -2.9947  -2.9947  -2.9777  -2.9776  -2.9157  -2.9157
    -2.8918  -2.8917  -2.8729  -2.8729  -2.8192  -2.8192  -2.7861  -2.7861
    -2.6585  -2.6585  -2.6433  -2.6433  -2.5730  -2.5729  -2.5522  -2.5521
    -2.2661  -2.2661  -2.2145  -2.2145  -2.0421  -2.0421  -1.9968  -1.9967
    -1.9597  -1.9597  -1.9176  -1.9176  -1.8739  -1.8739  -1.8264  -1.8263
    -1.6198  -1.6197  -1.6136  -1.6136  -1.5951  -1.5951  -1.5776  -1.5775
    -0.2695  -0.2695  -0.2673  -0.2672  -0.1697  -0.1697  -0.1531  -0.1530
     0.1605   0.1606   0.1632   0.1633   0.1856   0.1858   0.1892   0.1894
     0.4388   0.4388   0.4413   0.4413   0.5275   0.5275   0.5591   0.5591
     0.9751   0.9751   1.0025   1.0025   1.0131   1.0131   1.1137   1.1138

          k = 0.0000-0.1741 0.0000 ( 38704 PWs)   bands (ev):

   -24.6205 -24.6204 -24.6204 -24.6203 -24.5181 -24.5180 -24.4961 -24.4960
   -20.2524 -20.2523 -20.2519 -20.2519 -20.2090 -20.2088 -20.2021 -20.2019
   -19.0429 -19.0429 -19.0421 -19.0420 -19.0137 -19.0136 -19.0032 -19.0032
   -18.1462 -18.1461 -18.1442 -18.1441 -18.1363 -18.1363 -18.1343 -18.1342
   -15.2742 -15.2742 -15.2738 -15.2737 -15.1728 -15.1728 -15.1645 -15.1645
   -13.3568 -13.3568 -13.3182 -13.3181 -13.3070 -13.3069 -13.2545 -13.2544
   -12.7481 -12.7481 -12.7465 -12.7465 -12.6971 -12.6970 -12.6457 -12.6456
   -12.3520 -12.3519 -12.3179 -12.3178 -12.2352 -12.2352 -12.2281 -12.2281
   -11.9684 -11.9684 -11.9625 -11.9624 -11.8901 -11.8900 -11.8857 -11.8857
   -11.0529 -11.0529 -11.0260 -11.0260 -10.9880 -10.9880 -10.9502 -10.9501
    -9.7371  -9.7371  -9.7205  -9.7205  -9.6592  -9.6592  -9.6536  -9.6536
    -9.0753  -9.0753  -9.0604  -9.0604  -8.9687  -8.9686  -8.9653  -8.9651
    -8.5644  -8.5643  -8.4782  -8.4782  -8.3770  -8.3770  -8.3185  -8.3185
    -7.5682  -7.5682  -7.5337  -7.5337  -7.4671  -7.4671  -7.4330  -7.4330
    -7.1842  -7.1842  -7.1559  -7.1559  -7.0983  -7.0982  -7.0759  -7.0758
    -6.8825  -6.8825  -6.8588  -6.8588  -6.8317  -6.8316  -6.7754  -6.7754
    -6.3807  -6.3807  -6.3512  -6.3512  -6.2981  -6.2980  -6.2843  -6.2843
    -6.0404  -6.0404  -5.9866  -5.9866  -5.9341  -5.9341  -5.8805  -5.8805
    -5.7872  -5.7872  -5.7624  -5.7624  -5.6833  -5.6833  -5.6565  -5.6565
    -5.6029  -5.6029  -5.5139  -5.5139  -5.4703  -5.4703  -5.4453  -5.4453
    -5.1407  -5.1406  -5.0872  -5.0872  -5.0802  -5.0802  -5.0384  -5.0384
    -5.0120  -5.0120  -4.9639  -4.9639  -4.9478  -4.9478  -4.8625  -4.8624
    -4.5825  -4.5825  -4.5309  -4.5309  -4.4935  -4.4935  -4.4635  -4.4634
    -4.3903  -4.3903  -4.3445  -4.3445  -4.2685  -4.2685  -4.2486  -4.2485
    -4.2308  -4.2308  -4.1481  -4.1481  -4.0524  -4.0524  -4.0174  -4.0174
    -3.9984  -3.9984  -3.9563  -3.9563  -3.8750  -3.8749  -3.8640  -3.8640
    -3.8347  -3.8347  -3.7930  -3.7930  -3.7782  -3.7782  -3.7395  -3.7395
    -3.7058  -3.7058  -3.6570  -3.6570  -3.6402  -3.6402  -3.6296  -3.6296
    -3.4981  -3.4981  -3.4743  -3.4742  -3.4697  -3.4697  -3.4533  -3.4532
    -3.2307  -3.2307  -3.1646  -3.1646  -3.1217  -3.1216  -3.0933  -3.0932
    -3.0189  -3.0189  -2.9849  -2.9849  -2.9690  -2.9689  -2.9518  -2.9517
    -2.8967  -2.8967  -2.8740  -2.8739  -2.8326  -2.8326  -2.8160  -2.8159
    -2.6954  -2.6953  -2.6668  -2.6667  -2.5964  -2.5963  -2.5783  -2.5783
    -2.2176  -2.2176  -2.1593  -2.1592  -2.0334  -2.0334  -2.0189  -2.0189
    -1.9675  -1.9675  -1.9266  -1.9266  -1.8759  -1.8759  -1.7975  -1.7975
    -1.6594  -1.6594  -1.6203  -1.6202  -1.5976  -1.5976  -1.5692  -1.5691
    -0.2949  -0.2949  -0.2727  -0.2727  -0.2558  -0.2558  -0.0459  -0.0458
     0.1267   0.1268   0.1335   0.1335   0.2098   0.2098   0.2160   0.2160
     0.3903   0.3903   0.4629   0.4629   0.5309   0.5309   0.5397   0.5397
     0.9225   0.9226   0.9812   0.9812   1.1192   1.1192   1.1574   1.1575

          k = 0.0000-0.1741 0.1059 ( 38688 PWs)   bands (ev):

   -24.6205 -24.6204 -24.6204 -24.6203 -24.5181 -24.5180 -24.4961 -24.4960
   -20.2524 -20.2523 -20.2519 -20.2519 -20.2090 -20.2089 -20.2021 -20.2019
   -19.0428 -19.0428 -19.0421 -19.0420 -19.0137 -19.0137 -19.0033 -19.0032
   -18.1461 -18.1461 -18.1443 -18.1442 -18.1362 -18.1362 -18.1344 -18.1344
   -15.2742 -15.2741 -15.2737 -15.2737 -15.1727 -15.1727 -15.1644 -15.1644
   -13.3556 -13.3556 -13.3216 -13.3215 -13.3124 -13.3123 -13.2568 -13.2567
   -12.7452 -12.7452 -12.7438 -12.7438 -12.6915 -12.6915 -12.6439 -12.6438
   -12.3475 -12.3474 -12.3177 -12.3176 -12.2331 -12.2331 -12.2271 -12.2271
   -11.9691 -11.9690 -11.9601 -11.9600 -11.8897 -11.8897 -11.8853 -11.8853
   -11.0591 -11.0590 -11.0362 -11.0362 -10.9981 -10.9980 -10.9634 -10.9634
    -9.7236  -9.7236  -9.7090  -9.7090  -9.6451  -9.6450  -9.6371  -9.6371
    -9.0809  -9.0809  -9.0672  -9.0672  -8.9703  -8.9703  -8.9627  -8.9627
    -8.5615  -8.5615  -8.4847  -8.4847  -8.3790  -8.3790  -8.3262  -8.3262
    -7.5710  -7.5709  -7.5416  -7.5416  -7.4691  -7.4690  -7.4406  -7.4405
    -7.1881  -7.1880  -7.1707  -7.1706  -7.0995  -7.0995  -7.0877  -7.0877
    -6.8782  -6.8782  -6.8470  -6.8470  -6.8201  -6.8200  -6.7631  -6.7630
    -6.3864  -6.3864  -6.3605  -6.3604  -6.2996  -6.2996  -6.2837  -6.2837
    -6.0217  -6.0217  -5.9819  -5.9819  -5.9134  -5.9134  -5.8720  -5.8720
    -5.7818  -5.7818  -5.7456  -5.7456  -5.6933  -5.6933  -5.6626  -5.6626
    -5.6093  -5.6092  -5.5133  -5.5133  -5.4794  -5.4794  -5.4519  -5.4519
    -5.1390  -5.1389  -5.0841  -5.0840  -5.0749  -5.0749  -5.0367  -5.0367
    -5.0146  -5.0146  -4.9673  -4.9672  -4.9480  -4.9480  -4.8662  -4.8661
    -4.5879  -4.5879  -4.5504  -4.5504  -4.5051  -4.5050  -4.4703  -4.4703
    -4.3889  -4.3888  -4.3355  -4.3355  -4.2656  -4.2655  -4.2306  -4.2306
    -4.2205  -4.2205  -4.1404  -4.1404  -4.0669  -4.0669  -4.0256  -4.0256
    -3.9997  -3.9996  -3.9564  -3.9564  -3.8928  -3.8928  -3.8617  -3.8617
    -3.8362  -3.8362  -3.7851  -3.7851  -3.7551  -3.7551  -3.7318  -3.7318
    -3.6947  -3.6946  -3.6556  -3.6555  -3.6424  -3.6423  -3.6262  -3.6261
    -3.5213  -3.5213  -3.5032  -3.5032  -3.4657  -3.4657  -3.4478  -3.4478
    -3.2304  -3.2304  -3.1728  -3.1727  -3.1265  -3.1264  -3.0966  -3.0965
    -3.0247  -3.0247  -2.9891  -2.9891  -2.9741  -2.9741  -2.9400  -2.9400
    -2.8973  -2.8973  -2.8694  -2.8694  -2.8268  -2.8268  -2.8061  -2.8061
    -2.6888  -2.6888  -2.6637  -2.6636  -2.5895  -2.5894  -2.5710  -2.5709
    -2.2264  -2.2264  -2.1777  -2.1777  -2.0321  -2.0321  -2.0134  -2.0134
    -1.9652  -1.9652  -1.9257  -1.9256  -1.8749  -1.8749  -1.8058  -1.8058
    -1.6509  -1.6508  -1.6184  -1.6183  -1.5984  -1.5983  -1.5678  -1.5677
    -0.2827  -0.2826  -0.2708  -0.2708  -0.2527  -0.2527  -0.0605  -0.0604
     0.1331   0.1331   0.1388   0.1388   0.2061   0.2061   0.2112   0.2112
     0.3987   0.3988   0.4607   0.4608   0.5300   0.5300   0.5444   0.5444
     0.9301   0.9301   0.9827   0.9827   1.1014   1.1015   1.1475   1.1475

          k = 0.0000-0.1741 0.2117 ( 38674 PWs)   bands (ev):

   -24.6205 -24.6204 -24.6204 -24.6203 -24.5181 -24.5180 -24.4961 -24.4960
   -20.2523 -20.2522 -20.2520 -20.2519 -20.2091 -20.2089 -20.2021 -20.2019
   -19.0426 -19.0426 -19.0421 -19.0421 -19.0138 -19.0138 -19.0034 -19.0033
   -18.1459 -18.1459 -18.1444 -18.1444 -18.1358 -18.1358 -18.1348 -18.1347
   -15.2740 -15.2739 -15.2736 -15.2736 -15.1725 -15.1725 -15.1642 -15.1642
   -13.3510 -13.3510 -13.3294 -13.3294 -13.3237 -13.3237 -13.2615 -13.2614
   -12.7397 -12.7396 -12.7385 -12.7385 -12.6790 -12.6789 -12.6419 -12.6418
   -12.3365 -12.3364 -12.3190 -12.3189 -12.2286 -12.2286 -12.2252 -12.2252
   -11.9695 -11.9694 -11.9561 -11.9560 -11.8891 -11.8890 -11.8845 -11.8845
   -11.0702 -11.0702 -11.0575 -11.0575 -11.0148 -11.0147 -10.9927 -10.9926
    -9.6956  -9.6956  -9.6867  -9.6866  -9.6152  -9.6151  -9.6048  -9.6048
    -9.0924  -9.0924  -9.0816  -9.0815  -8.9715  -8.9715  -8.9612  -8.9612
    -8.5516  -8.5515  -8.5024  -8.5024  -8.3798  -8.3798  -8.3447  -8.3447
    -7.5756  -7.5755  -7.5566  -7.5566  -7.4748  -7.4748  -7.4570  -7.4570
    -7.1987  -7.1986  -7.1901  -7.1901  -7.1102  -7.1101  -7.1016  -7.1016
    -6.8742  -6.8742  -6.8382  -6.8382  -6.7807  -6.7807  -6.7383  -6.7383
    -6.3993  -6.3993  -6.3819  -6.3819  -6.2993  -6.2993  -6.2863  -6.2863
    -5.9947  -5.9947  -5.9672  -5.9672  -5.8659  -5.8659  -5.8483  -5.8483
    -5.7625  -5.7624  -5.7271  -5.7270  -5.7031  -5.7031  -5.6762  -5.6762
    -5.6132  -5.6132  -5.5261  -5.5261  -5.5021  -5.5021  -5.4648  -5.4648
    -5.1357  -5.1356  -5.0782  -5.0781  -5.0695  -5.0694  -5.0405  -5.0405
    -5.0212  -5.0212  -4.9608  -4.9608  -4.9442  -4.9442  -4.8749  -4.8748
    -4.6002  -4.6002  -4.5872  -4.5872  -4.5254  -4.5254  -4.4890  -4.4890
    -4.3688  -4.3688  -4.3272  -4.3272  -4.2490  -4.2490  -4.2091  -4.2091
    -4.1972  -4.1972  -4.1341  -4.1341  -4.0988  -4.0988  -4.0220  -4.0220
    -4.0064  -4.0064  -3.9621  -3.9621  -3.9235  -3.9234  -3.8775  -3.8775
    -3.8114  -3.8113  -3.7631  -3.7631  -3.7417  -3.7417  -3.7025  -3.7025
    -3.6801  -3.6801  -3.6443  -3.6443  -3.6408  -3.6408  -3.6139  -3.6139
    -3.5621  -3.5620  -3.5493  -3.5493  -3.4740  -3.4739  -3.4574  -3.4574
    -3.2275  -3.2275  -3.1934  -3.1934  -3.1320  -3.1320  -3.1010  -3.1009
    -3.0362  -3.0362  -2.9945  -2.9945  -2.9767  -2.9767  -2.9226  -2.9226
    -2.8979  -2.8978  -2.8707  -2.8706  -2.8105  -2.8105  -2.7965  -2.7965
    -2.6708  -2.6707  -2.6525  -2.6525  -2.5759  -2.5759  -2.5589  -2.5588
    -2.2434  -2.2433  -2.2137  -2.2137  -2.0334  -2.0334  -2.0018  -2.0018
    -1.9611  -1.9611  -1.9240  -1.9240  -1.8734  -1.8734  -1.8200  -1.8200
    -1.6312  -1.6312  -1.6142  -1.6141  -1.5990  -1.5990  -1.5706  -1.5705
    -0.2720  -0.2720  -0.2666  -0.2666  -0.2213  -0.2212  -0.1017  -0.1017
     0.1488   0.1488   0.1524   0.1524   0.1958   0.1959   0.1987   0.1988
     0.4190   0.4191   0.4539   0.4539   0.5284   0.5284   0.5541   0.5541
     0.9530   0.9531   0.9881   0.9881   1.0569   1.0570   1.1258   1.1259

          k = 0.0000-0.1741-0.3176 ( 38708 PWs)   bands (ev):

   -24.6205 -24.6204 -24.6204 -24.6203 -24.5182 -24.5180 -24.4961 -24.4960
   -20.2522 -20.2521 -20.2520 -20.2520 -20.2091 -20.2090 -20.2021 -20.2019
   -19.0424 -19.0424 -19.0423 -19.0422 -19.0139 -19.0138 -19.0034 -19.0033
   -18.1458 -18.1458 -18.1446 -18.1445 -18.1354 -18.1354 -18.1352 -18.1351
   -15.2739 -15.2738 -15.2736 -15.2736 -15.1724 -15.1724 -15.1641 -15.1641
   -13.3433 -13.3432 -13.3395 -13.3395 -13.3285 -13.3284 -13.2639 -13.2638
   -12.7370 -12.7370 -12.7360 -12.7360 -12.6715 -12.6714 -12.6423 -12.6422
   -12.3256 -12.3256 -12.3249 -12.3249 -12.2257 -12.2257 -12.2248 -12.2248
   -11.9695 -11.9695 -11.9542 -11.9542 -11.8888 -11.8887 -11.8841 -11.8840
   -11.0728 -11.0728 -11.0711 -11.0711 -11.0174 -11.0173 -11.0128 -11.0127
    -9.6794  -9.6793  -9.6777  -9.6777  -9.6002  -9.6002  -9.5880  -9.5880
    -9.0983  -9.0983  -9.0894  -9.0894  -8.9719  -8.9718  -8.9614  -8.9614
    -8.5395  -8.5395  -8.5188  -8.5187  -8.3750  -8.3750  -8.3591  -8.3590
    -7.5738  -7.5737  -7.5680  -7.5680  -7.4753  -7.4753  -7.4687  -7.4687
    -7.2042  -7.2042  -7.1982  -7.1982  -7.1172  -7.1171  -7.1058  -7.1057
    -6.8734  -6.8734  -6.8351  -6.8351  -6.7578  -6.7578  -6.7273  -6.7273
    -6.4017  -6.4017  -6.3989  -6.3989  -6.2941  -6.2940  -6.2929  -6.2929
    -5.9872  -5.9872  -5.9584  -5.9584  -5.8340  -5.8340  -5.8317  -5.8317
    -5.7488  -5.7488  -5.7344  -5.7344  -5.6967  -5.6966  -5.6869  -5.6869
    -5.5996  -5.5996  -5.5576  -5.5576  -5.5010  -5.5010  -5.4776  -5.4776
    -5.1350  -5.1349  -5.0752  -5.0751  -5.0718  -5.0718  -5.0351  -5.0351
    -5.0333  -5.0333  -4.9470  -4.9470  -4.9460  -4.9460  -4.8805  -4.8804
    -4.6086  -4.6086  -4.6035  -4.6035  -4.5320  -4.5320  -4.5015  -4.5014
    -4.3422  -4.3421  -4.3390  -4.3390  -4.2342  -4.2342  -4.2086  -4.2086
    -4.1738  -4.1738  -4.1499  -4.1498  -4.1064  -4.1064  -4.0161  -4.0161
    -3.9972  -3.9972  -3.9887  -3.9886  -3.9209  -3.9209  -3.8953  -3.8953
    -3.7891  -3.7891  -3.7717  -3.7717  -3.7140  -3.7140  -3.6996  -3.6996
    -3.6730  -3.6730  -3.6398  -3.6397  -3.6255  -3.6254  -3.6061  -3.6061
    -3.5837  -3.5837  -3.5789  -3.5789  -3.4800  -3.4800  -3.4693  -3.4693
    -3.2211  -3.2211  -3.2094  -3.2093  -3.1340  -3.1339  -3.1026  -3.1025
    -3.0405  -3.0405  -2.9974  -2.9974  -2.9773  -2.9773  -2.9099  -2.9098
    -2.9010  -2.9009  -2.8740  -2.8740  -2.8036  -2.8036  -2.7958  -2.7958
    -2.6580  -2.6579  -2.6451  -2.6451  -2.5693  -2.5692  -2.5542  -2.5541
    -2.2499  -2.2499  -2.2339  -2.2339  -2.0345  -2.0345  -1.9967  -1.9967
    -1.9595  -1.9594  -1.9233  -1.9233  -1.8735  -1.8735  -1.8260  -1.8260
    -1.6197  -1.6197  -1.6122  -1.6122  -1.5959  -1.5959  -1.5777  -1.5777
    -0.2686  -0.2685  -0.2682  -0.2682  -0.1697  -0.1696  -0.1531  -0.1530
     0.1609   0.1609   0.1634   0.1634   0.1870   0.1870   0.1875   0.1876
     0.4386   0.4386   0.4415   0.4415   0.5274   0.5274   0.5591   0.5591
     0.9751   0.9752   1.0020   1.0020   1.0135   1.0135   1.1137   1.1138

          k = 0.1250 0.0000 0.0341 ( 38711 PWs)   bands (ev):

   -24.6205 -24.6204 -24.6204 -24.6203 -24.5181 -24.5180 -24.4962 -24.4961
   -20.2524 -20.2523 -20.2520 -20.2518 -20.2089 -20.2088 -20.2021 -20.2020
   -19.0428 -19.0427 -19.0422 -19.0421 -19.0136 -19.0135 -19.0035 -19.0034
   -18.1462 -18.1460 -18.1443 -18.1441 -18.1363 -18.1359 -18.1345 -18.1343
   -15.2748 -15.2747 -15.2739 -15.2737 -15.1728 -15.1727 -15.1648 -15.1647
   -13.3606 -13.3580 -13.3191 -13.3161 -13.3063 -13.3060 -13.2588 -13.2584
   -12.7478 -12.7474 -12.7458 -12.7406 -12.6970 -12.6928 -12.6432 -12.6431
   -12.3494 -12.3476 -12.3207 -12.3149 -12.2338 -12.2317 -12.2315 -12.2275
   -11.9684 -11.9657 -11.9634 -11.9619 -11.8901 -11.8893 -11.8885 -11.8859
   -11.0613 -11.0606 -11.0288 -11.0272 -10.9940 -10.9924 -10.9592 -10.9584
    -9.7283  -9.7227  -9.7196  -9.7149  -9.6504  -9.6499  -9.6475  -9.6415
    -9.0831  -9.0708  -9.0701  -9.0597  -8.9782  -8.9677  -8.9617  -8.9610
    -8.5718  -8.5550  -8.4912  -8.4681  -8.3969  -8.3584  -8.3404  -8.3125
    -7.5785  -7.5654  -7.5488  -7.5150  -7.4738  -7.4660  -7.4604  -7.4220
    -7.1880  -7.1848  -7.1764  -7.1444  -7.1184  -7.0887  -7.0848  -7.0781
    -6.8928  -6.8681  -6.8557  -6.8515  -6.8287  -6.8173  -6.7817  -6.7565
    -6.3883  -6.3659  -6.3645  -6.3588  -6.3035  -6.3003  -6.2944  -6.2705
    -6.0618  -6.0055  -5.9935  -5.9629  -5.9263  -5.8992  -5.8773  -5.8687
    -5.8070  -5.7725  -5.7466  -5.7161  -5.6946  -5.6721  -5.6420  -5.6196
    -5.6173  -5.5694  -5.5267  -5.5006  -5.4804  -5.4772  -5.4442  -5.4402
    -5.1554  -5.1330  -5.1037  -5.0876  -5.0872  -5.0719  -5.0417  -5.0388
    -5.0244  -5.0202  -4.9761  -4.9726  -4.9539  -4.9377  -4.8721  -4.8610
    -4.5883  -4.5812  -4.5570  -4.5449  -4.5088  -4.5041  -4.4822  -4.4320
    -4.4077  -4.3818  -4.3691  -4.3321  -4.2829  -4.2677  -4.2561  -4.2462
    -4.2378  -4.2125  -4.1661  -4.1359  -4.1052  -4.0451  -4.0353  -4.0180
    -4.0096  -3.9999  -3.9819  -3.9350  -3.8965  -3.8742  -3.8602  -3.8441
    -3.8373  -3.8208  -3.7957  -3.7875  -3.7649  -3.7436  -3.7362  -3.7356
    -3.7088  -3.6853  -3.6752  -3.6611  -3.6534  -3.6318  -3.6171  -3.6051
    -3.5356  -3.5167  -3.4830  -3.4799  -3.4757  -3.4587  -3.4559  -3.4480
    -3.2418  -3.1926  -3.1717  -3.1678  -3.1518  -3.1347  -3.1024  -3.0876
    -3.0197  -3.0044  -2.9985  -2.9920  -2.9851  -2.9607  -2.9411  -2.9379
    -2.8996  -2.8901  -2.8728  -2.8654  -2.8619  -2.8568  -2.8123  -2.7895
    -2.6957  -2.6837  -2.6824  -2.6432  -2.5957  -2.5949  -2.5859  -2.5609
    -2.2351  -2.1988  -2.1752  -2.1597  -2.0633  -2.0477  -2.0347  -2.0021
    -1.9731  -1.9568  -1.9395  -1.9233  -1.8849  -1.8811  -1.8009  -1.7989
    -1.6602  -1.6509  -1.6157  -1.6018  -1.5990  -1.5826  -1.5624  -1.5614
    -0.2974  -0.2904  -0.2767  -0.2706  -0.2587  -0.2520  -0.0500  -0.0487
     0.1286   0.1317   0.1318   0.1406   0.2033   0.2117   0.2137   0.2138
     0.3827   0.4030   0.4563   0.4801   0.5181   0.5346   0.5380   0.5408
     0.9051   0.9234   0.9497   0.9625   1.1269   1.1316   1.1817   1.1842

          k = 0.1250 0.0000 0.1400 ( 38723 PWs)   bands (ev):

   -24.6205 -24.6204 -24.6204 -24.6203 -24.5181 -24.5180 -24.4962 -24.4960
   -20.2523 -20.2522 -20.2520 -20.2519 -20.2090 -20.2088 -20.2021 -20.2020
   -19.0425 -19.0425 -19.0423 -19.0423 -19.0136 -19.0136 -19.0036 -19.0035
   -18.1460 -18.1459 -18.1444 -18.1443 -18.1360 -18.1357 -18.1348 -18.1346
   -15.2750 -15.2748 -15.2735 -15.2733 -15.1723 -15.1723 -15.1648 -15.1648
   -13.3626 -13.3601 -13.3256 -13.3224 -13.3115 -13.3110 -13.2632 -13.2629
   -12.7462 -12.7455 -12.7365 -12.7337 -12.6873 -12.6852 -12.6378 -12.6375
   -12.3411 -12.3387 -12.3204 -12.3141 -12.2295 -12.2285 -12.2284 -12.2258
   -11.9691 -11.9668 -11.9594 -11.9577 -11.8899 -11.8890 -11.8870 -11.8852
   -11.0785 -11.0774 -11.0440 -11.0415 -11.0125 -11.0096 -10.9855 -10.9849
    -9.7000  -9.6993  -9.6959  -9.6934  -9.6214  -9.6212  -9.6153  -9.6123
    -9.1003  -9.0889  -9.0723  -9.0688  -8.9835  -8.9730  -8.9604  -8.9532
    -8.5743  -8.5410  -8.5031  -8.4737  -8.4042  -8.3767  -8.3560  -8.3183
    -7.5817  -7.5813  -7.5507  -7.5340  -7.4913  -7.4747  -7.4571  -7.4409
    -7.2123  -7.1989  -7.1783  -7.1586  -7.1364  -7.1078  -7.0913  -7.0906
    -6.8908  -6.8603  -6.8378  -6.8375  -6.7965  -6.7924  -6.7563  -6.7298
    -6.3997  -6.3903  -6.3722  -6.3720  -6.3142  -6.3107  -6.2942  -6.2629
    -6.0179  -5.9955  -5.9848  -5.9515  -5.8976  -5.8678  -5.8403  -5.8394
    -5.7922  -5.7491  -5.7443  -5.6989  -5.6797  -5.6777  -5.6579  -5.6306
    -5.6078  -5.5811  -5.5460  -5.5183  -5.4994  -5.4918  -5.4477  -5.4459
    -5.1547  -5.1372  -5.0991  -5.0889  -5.0817  -5.0652  -5.0498  -5.0353
    -5.0287  -5.0182  -4.9786  -4.9677  -4.9461  -4.9401  -4.8767  -4.8649
    -4.6025  -4.5986  -4.5914  -4.5778  -4.5339  -4.5142  -4.5029  -4.4528
    -4.4069  -4.3666  -4.3526  -4.3132  -4.2738  -4.2472  -4.2395  -4.2323
    -4.2161  -4.1796  -4.1557  -4.1466  -4.1282  -4.0795  -4.0508  -4.0241
    -4.0061  -3.9984  -3.9755  -3.9312  -3.9156  -3.9031  -3.8391  -3.8302
    -3.8248  -3.8231  -3.8093  -3.7778  -3.7492  -3.7356  -3.7111  -3.6970
    -3.6969  -3.6796  -3.6785  -3.6592  -3.6415  -3.6231  -3.6150  -3.6012
    -3.5628  -3.5546  -3.5168  -3.5016  -3.4965  -3.4912  -3.4513  -3.4497
    -3.2444  -3.2123  -3.1830  -3.1629  -3.1499  -3.1486  -3.1123  -3.0916
    -3.0409  -3.0192  -3.0043  -2.9932  -2.9762  -2.9612  -2.9320  -2.9247
    -2.8981  -2.8822  -2.8689  -2.8685  -2.8505  -2.8374  -2.7899  -2.7814
    -2.6760  -2.6749  -2.6683  -2.6384  -2.5854  -2.5832  -2.5705  -2.5504
    -2.2532  -2.2425  -2.1919  -2.1867  -2.0615  -2.0477  -2.0140  -2.0032
    -1.9668  -1.9593  -1.9321  -1.9209  -1.8851  -1.8830  -1.8077  -1.8044
    -1.6499  -1.6429  -1.6077  -1.6045  -1.5938  -1.5879  -1.5570  -1.5569
    -0.2801  -0.2791  -0.2776  -0.2606  -0.2556  -0.2472  -0.0682  -0.0667
     0.1425   0.1434   0.1452   0.1540   0.1918   0.2010   0.2034   0.2051
     0.3914   0.4067   0.4607   0.4768   0.5184   0.5355   0.5439   0.5482
     0.8993   0.9186   0.9428   0.9588   1.1151   1.1202   1.1722   1.1767

          k = 0.1250 0.0000 0.2458 ( 38738 PWs)   bands (ev):

   -24.6205 -24.6204 -24.6204 -24.6204 -24.5181 -24.5180 -24.4962 -24.4961
   -20.2522 -20.2521 -20.2520 -20.2520 -20.2090 -20.2089 -20.2021 -20.2020
   -19.0425 -19.0425 -19.0422 -19.0421 -19.0137 -19.0136 -19.0036 -19.0035
   -18.1458 -18.1458 -18.1446 -18.1445 -18.1355 -18.1353 -18.1352 -18.1350
   -15.2750 -15.2748 -15.2733 -15.2731 -15.1723 -15.1723 -15.1645 -15.1645
   -13.3575 -13.3553 -13.3323 -13.3274 -13.3224 -13.3198 -13.2662 -13.2661
   -12.7439 -12.7432 -12.7297 -12.7290 -12.6755 -12.6752 -12.6387 -12.6382
   -12.3314 -12.3270 -12.3241 -12.3180 -12.2273 -12.2264 -12.2250 -12.2243
   -11.9694 -11.9680 -11.9560 -11.9544 -11.8897 -11.8880 -11.8860 -11.8850
   -11.0867 -11.0855 -11.0589 -11.0560 -11.0204 -11.0173 -11.0095 -11.0094
    -9.6870  -9.6830  -9.6757  -9.6709  -9.6010  -9.6002  -9.5901  -9.5898
    -9.1089  -9.1049  -9.0765  -9.0764  -8.9847  -8.9792  -8.9595  -8.9501
    -8.5620  -8.5275  -8.5227  -8.4915  -8.4039  -8.3850  -8.3580  -8.3347
    -7.5873  -7.5842  -7.5537  -7.5507  -7.4934  -7.4843  -7.4609  -7.4560
    -7.2232  -7.2106  -7.1787  -7.1708  -7.1431  -7.1265  -7.0971  -7.0963
    -6.8882  -6.8721  -6.8270  -6.8104  -6.7799  -6.7738  -6.7246  -6.7178
    -6.4169  -6.4040  -6.3842  -6.3792  -6.3200  -6.3175  -6.2862  -6.2656
    -5.9963  -5.9785  -5.9749  -5.9537  -5.8441  -5.8367  -5.8338  -5.8066
    -5.7606  -5.7316  -5.7152  -5.7100  -5.6841  -5.6793  -5.6606  -5.6588
    -5.6098  -5.5768  -5.5637  -5.5518  -5.5082  -5.4987  -5.4659  -5.4643
    -5.1493  -5.1411  -5.0913  -5.0892  -5.0765  -5.0761  -5.0571  -5.0416
    -5.0244  -5.0225  -4.9599  -4.9542  -4.9412  -4.9411  -4.8843  -4.8751
    -4.6250  -4.6151  -4.5988  -4.5988  -4.5534  -4.5335  -4.4958  -4.4860
    -4.3853  -4.3486  -4.3386  -4.3126  -4.2554  -4.2422  -4.2189  -4.2015
    -4.1929  -4.1841  -4.1475  -4.1435  -4.1334  -4.1197  -4.0476  -4.0270
    -4.0077  -3.9951  -3.9897  -3.9453  -3.9261  -3.9169  -3.8462  -3.8392
    -3.8120  -3.8001  -3.7882  -3.7872  -3.7534  -3.7529  -3.6829  -3.6770
    -3.6748  -3.6666  -3.6624  -3.6466  -3.6268  -3.6222  -3.6106  -3.5962
    -3.5751  -3.5737  -3.5546  -3.5480  -3.5097  -3.5056  -3.4625  -3.4441
    -3.2414  -3.2346  -3.1839  -3.1775  -3.1502  -3.1396  -3.1165  -3.0897
    -3.0604  -3.0279  -3.0269  -3.0003  -2.9663  -2.9535  -2.9286  -2.9117
    -2.8870  -2.8859  -2.8770  -2.8708  -2.8345  -2.8262  -2.7857  -2.7832
    -2.6626  -2.6566  -2.6490  -2.6377  -2.5773  -2.5742  -2.5561  -2.5467
    -2.2789  -2.2631  -2.2145  -2.1942  -2.0666  -2.0378  -2.0081  -1.9974
    -1.9663  -1.9626  -1.9214  -1.9198  -1.8822  -1.8821  -1.8235  -1.8190
    -1.6300  -1.6281  -1.6108  -1.5990  -1.5901  -1.5893  -1.5630  -1.5627
    -0.2779  -0.2749  -0.2625  -0.2572  -0.2169  -0.2164  -0.1117  -0.1102
     0.1571   0.1607   0.1614   0.1630   0.1812   0.1892   0.1900   0.1938
[...]
     atom  131 type  3   force =    -0.00002744   -0.00016670    0.00029252
     atom  132 type  3   force =     0.00002744   -0.00016670   -0.00029252
     atom  133 type  1   force =    -0.00002655   -0.00007341   -0.00017725
     atom  134 type  1   force =    -0.00002655    0.00007341   -0.00017725
     atom  135 type  1   force =     0.00002655    0.00007341    0.00017725
     atom  136 type  1   force =     0.00008963    0.00007944   -0.00002553
     atom  137 type  1   force =     0.00008963   -0.00007944   -0.00002553
     atom  138 type  1   force =    -0.00008963   -0.00007944    0.00002553
     atom  139 type  2   force =     0.00008764    0.00006504   -0.00018930
     atom  140 type  2   force =     0.00008764   -0.00006504   -0.00018930
     atom  141 type  2   force =    -0.00008764   -0.00006504    0.00018930
     atom  142 type  2   force =     0.00031625    0.00017506   -0.00007462
     atom  143 type  2   force =     0.00031625   -0.00017506   -0.00007462
     atom  144 type  2   force =    -0.00031625   -0.00017506    0.00007462
     atom  145 type  2   force =    -0.00013693    0.00009642    0.00016320
     atom  146 type  2   force =    -0.00013693   -0.00009642    0.00016320
     atom  147 type  2   force =     0.00013693   -0.00009642   -0.00016320
     atom  148 type  1   force =     0.00001158    0.00034773   -0.00007474
     atom  149 type  1   force =     0.00001158   -0.00034773   -0.00007474
     atom  150 type  1   force =    -0.00001158   -0.00034773    0.00007474
     atom  151 type  2   force =    -0.00003476    0.00042567   -0.00019897
     atom  152 type  2   force =    -0.00003476   -0.00042567   -0.00019897
     atom  153 type  2   force =     0.00003476   -0.00042567    0.00019897
     atom  154 type  2   force =     0.00001363    0.00025433    0.00018314
     atom  155 type  2   force =     0.00001363   -0.00025433    0.00018314
     atom  156 type  2   force =    -0.00001363   -0.00025433   -0.00018314
     atom  157 type  1   force =    -0.00010523   -0.00009898    0.00004875
     atom  158 type  1   force =    -0.00010523    0.00009898    0.00004875
     atom  159 type  1   force =     0.00010523    0.00009898   -0.00004875
     atom  160 type  1   force =    -0.00032557    0.00051437    0.00018403
     atom  161 type  1   force =    -0.00032557   -0.00051437    0.00018403
     atom  162 type  1   force =     0.00032557   -0.00051437   -0.00018403
     atom  163 type  2   force =    -0.00032286    0.00023989   -0.00021482
     atom  164 type  2   force =    -0.00032286   -0.00023989   -0.00021482
     atom  165 type  2   force =     0.00032286   -0.00023989    0.00021482
     atom  166 type  1   force =    -0.00009121   -0.00034956    0.00046823
     atom  167 type  1   force =    -0.00009121    0.00034956    0.00046823
     atom  168 type  1   force =     0.00009121    0.00034956   -0.00046823
     atom  169 type  2   force =    -0.00044611    0.00002378    0.00048415
     atom  170 type  2   force =    -0.00044611   -0.00002378    0.00048415
     atom  171 type  2   force =     0.00044611   -0.00002378   -0.00048415
     atom  172 type  1   force =     0.00007985    0.00014810    0.00000086
     atom  173 type  1   force =     0.00007985   -0.00014810    0.00000086
     atom  174 type  1   force =    -0.00007985   -0.00014810   -0.00000086
     atom  175 type  2   force =    -0.00002685    0.00007695   -0.00019336
     atom  176 type  2   force =    -0.00002685   -0.00007695   -0.00019336
     atom  177 type  2   force =     0.00002685   -0.00007695    0.00019336
     atom  178 type  1   force =    -0.00003920    0.00027408   -0.00017969
     atom  179 type  1   force =    -0.00003920   -0.00027408   -0.00017969
     atom  180 type  1   force =     0.00003920   -0.00027408    0.00017969
     atom  181 type  2   force =     0.00015567    0.00026787    0.00030511
     atom  182 type  2   force =     0.00015567   -0.00026787    0.00030511
     atom  183 type  2   force =    -0.00015567   -0.00026787   -0.00030511
     atom  184 type  1   force =     0.00014884   -0.00010367    0.00034276
     atom  185 type  1   force =     0.00014884    0.00010367    0.00034276
     atom  186 type  1   force =    -0.00014884    0.00010367   -0.00034276
     atom  187 type  1   force =    -0.00004414    0.00002476    0.00019825
     atom  188 type  1   force =    -0.00004414   -0.00002476    0.00019825
     atom  189 type  1   force =     0.00004414   -0.00002476   -0.00019825
     atom  190 type  4   force =     0.00008054    0.00021120   -0.00007573
     atom  191 type  4   force =     0.00008054   -0.00021120   -0.00007573
     atom  192 type  4   force =    -0.00008054   -0.00021120    0.00007573
     atom  193 type  1   force =    -0.00008761   -0.00021091    0.00022757
     atom  194 type  1   force =    -0.00008761    0.00021091    0.00022757
     atom  195 type  1   force =     0.00008761    0.00021091   -0.00022757
     atom  196 type  3   force =     0.00031347   -0.00022279    0.00000407
     atom  197 type  3   force =     0.00031347    0.00022279    0.00000407
     atom  198 type  3   force =    -0.00031347    0.00022279   -0.00000407
     atom  199 type  2   force =     0.00002460    0.00031357   -0.00015090
     atom  200 type  2   force =     0.00002460   -0.00031357   -0.00015090
     atom  201 type  2   force =    -0.00002460   -0.00031357    0.00015090
     atom  202 type  5   force =     0.00013856    0.00008408    0.00044390
     atom  203 type  5   force =     0.00013856   -0.00008408    0.00044390
     atom  204 type  5   force =    -0.00013856   -0.00008408   -0.00044390
     atom  205 type  3   force =    -0.00038948    0.00003281    0.00031582
     atom  206 type  3   force =    -0.00038948   -0.00003281    0.00031582
     atom  207 type  3   force =     0.00038948   -0.00003281   -0.00031582
     atom  208 type  1   force =     0.00011409    0.00003560    0.00000716
     atom  209 type  1   force =     0.00011409   -0.00003560    0.00000716
     atom  210 type  1   force =    -0.00011409   -0.00003560   -0.00000716
     atom  211 type  1   force =    -0.00015948    0.00001770   -0.00013791
     atom  212 type  1   force =    -0.00015948   -0.00001770   -0.00013791
     atom  213 type  1   force =     0.00015948   -0.00001770    0.00013791
     atom  214 type  2   force =    -0.00003774   -0.00006999   -0.00009205
     atom  215 type  2   force =    -0.00003774    0.00006999   -0.00009205
     atom  216 type  2   force =     0.00003774    0.00006999    0.00009205

     Total force =     0.005192     Total SCF correction =     0.000026

     bfgs converged in   3 scf cycles and   2 bfgs steps
     (criteria: energy <  1.0E-04 Ry, force <  1.0E-03 Ry/Bohr)

     End of BFGS Geometry Optimization

     Final energy   =   -2183.2401080249 Ry
Begin final coordinates

ATOMIC_POSITIONS (angstrom)
C        0.261516923   4.050126592   0.811159623
H        1.286833070   3.717079494   0.563623032
H        7.289195852   3.721549595   0.007918500
H       -0.059815330   3.578266882   1.749863486
C        4.149868262   6.209846073  11.850480283
H        4.139607027   7.289641739  12.039240511
H        3.138720834   5.869065637  11.570948753
H       -2.879136402   5.991186442  11.003261991
C        3.047573891   6.286915875   7.726059287
H        3.534352361   6.952769572   8.441543396
C        2.189840210   4.071672133   7.143847986
H        1.969254063   3.049483861   7.451958232
C        2.633226637   6.775498478   6.475185527
F        3.199891756   4.491808916   9.253680651
C        0.617094406   6.164758424   1.999155429
H        0.583439287   7.255301749   1.916063902
C        1.798982866   4.564296706   5.905478052
H        1.269383569   3.886068758   5.238096543
N        0.201487118   5.504908994   0.916475837
C        1.582578086   6.461955976   4.219453201
C        1.093579250   5.617780054   3.179704673
H        1.130356656   4.538062817   3.304760474
O        2.814705359   8.074353192   6.198486943
H        2.344259286   8.171262137   5.250034568
O        1.678534724   7.738891401   4.068086265
C        2.014177007   5.901367485   5.523728167
C        3.173727450  12.975338936   2.684511379
H        4.016485597  13.087585848   1.982361807
H        3.462632798  13.372956160   3.666541502
H        2.313740703  13.550730668   2.305379429
C        3.066717355  10.953915301   4.124274361
H        2.730560079   9.912268498   4.094450080
H        2.524708879  11.502021567   4.914415764
H        4.144655658  10.988047267   4.359238818
C        5.103341211  11.766932134   7.674051279
C       -1.832369844  12.289358174   9.863254472
H       -1.473034268  13.033434434  10.574300408
C       -2.123797672  12.719364547   8.574865792
H       -2.004815901  13.763653926   8.281172601
C        2.324616760  10.871669004   1.805566609
H        2.065236706   9.834406982   2.038284493
C        4.916913043  10.436163542   7.993280222
H        4.522112802   9.724543342   7.263975488
C       -2.507174235  10.023569347   9.308109873
C       -2.008931270  10.954624854  10.274935094
N        2.816311211  11.572080055   2.828700541
C       -1.745131264  10.476554648  11.651880866
O        4.979492394   8.741366156   9.645888331
H       -2.467593780   8.733816211  10.685538299
F        4.792702743  12.166470339   6.393372689
O       -2.016366608   9.237197361  11.912567265
C        2.813743701   4.958999101   8.017381723
C        2.106869907  11.336348243   0.521135940
H        2.356874820  12.362777384   0.265331135
C        5.786213077  15.109626592   5.253400377
C        4.130553077  18.068873408  11.317960377
C       -1.394143077   7.009373408   6.875719623
H        4.760906930  14.776579494   5.500936968
H        3.105246930  18.401920506  11.565496968
H       -0.368836930   7.342420506   6.628183032
H       -1.241455852  14.781049595   6.056641500
H       -2.897115852  18.397450405  12.121201500
H        5.633525852   7.337950405   6.072468500
H        6.107555330  14.637766882   4.314696514
H        4.451895330  18.540733118  10.379256514
H       -1.715485330   7.481233118   7.814423486
C       -1.413458262  17.269346073   6.343199717
C        0.242211738  15.909153927   0.278639717
C        5.805528262   4.849653927   5.785920283
H       -1.403197027  18.349141740   6.154429489
H        0.252462973  14.829358260   0.089869489
H        5.795267027   3.769858261   5.974690511
H       -0.402310834  16.928565637   6.622721247
H        1.253349166  16.249934363   0.558161247
H        4.794390834   5.190434363   5.506388753
H        5.615546402  17.050686442   7.190408009
H        7.271206402  16.127813558   1.125848009
H       -1.223466402   5.068313558   4.938711991
C       -0.311163891  17.346415875  10.467620713
C        1.344496109  15.832084125   4.403060713
C        4.703233891   4.772584125   1.661499287
H       -0.797942361  18.012269572   9.752126604
H        0.857717639  15.166230428   3.687576604
H        5.190022361   4.106730428   2.376983396
C        0.546579790  15.131172133  11.049822014
C        2.202239790  18.047327867   4.985262014
C        3.845500210   6.987827867   1.079297986
H        0.767155937  14.108983861  10.741711768
H        2.422825937  19.069516139   4.677161768
H        3.624914063   8.010016139   1.387398232
C        0.103183363  17.834998478  11.718484473
C        1.758853363  15.343501522   5.653934473
C        4.288886637   4.284001522   0.410625527
F       -0.463481756  15.551308916   8.939999349
F        1.192178244  17.627191084   2.875439349
F        4.855561756   6.567691084   3.189120651
C        5.430635594  17.224258424   4.065404571
C        3.774975594  15.954241576  10.129954571
C       -1.038565594   4.894741576   8.063715429
H        5.464290713  18.314801749   4.148496098
H        3.808630713  14.863698251  10.213056098
H       -1.072220713   3.804198251   7.980623902
H        3.523021121   0.442521567   1.150134236
H        1.867361121  10.616978433   7.214694236
H        0.869048879  21.676478433  10.978975764
C        4.248757134  15.623796706   0.159081948
C        2.593097134  17.554703294   6.223641948
C        0.143312866   6.495203294  11.970028052
H        4.778356431  14.945568758   0.826463457
H        3.122696431  18.232931242   6.891023457
H       -0.386286431   7.173431242  11.302646543
N        5.846252882  16.564408994   5.148074163
N        4.190592882  16.614091006  11.212634163
N       -1.454182882   5.554591006   6.981035837
C        4.465161914  17.521455976   1.845106799
C        2.809501914  15.657044024   7.909656799
C       -0.073091914   4.597544024  10.284013201
C        4.954160750  16.677280054   2.884855327
C        3.298490750  16.501219946   8.949405327
C       -0.562080750   5.441719946   9.244264673
H        4.917383344  15.597562817   2.759799526
H        3.261723344  17.580937183   8.824349526
H       -0.525313344   6.521437183   9.369320474
O       -0.078295359  19.133853192  11.995183057
O        1.577364641  14.044646808   5.930623057
O        4.470365359   2.985146808   0.133936943
H        3.703480714  19.230762137   0.814525432
H        2.047820714  13.947737863   6.879075432
H        0.688599286   2.888237863  11.314594568
O        4.369205276  18.798391401   1.996473735
O        2.713545276  14.380108599   8.061033735
O        0.022864724   3.320608599  10.132646265
C        4.033552993  16.960867485   0.540831833
C        2.377892993  16.217632515   6.605391833
C        0.358517007   5.158132515  11.588288167
C        2.874002550   1.915838936   3.380048621
C        1.218342550   9.143661064   9.444608621
C        1.518067450  20.203161064   8.749071379
H        2.031244403   2.028085848   4.082198193
H        0.375584403   9.031414152  10.146758193
H        2.360825597  20.090914152   8.046921807
H        2.585107202   2.313456160   2.398018498
H        0.929447202   8.746043840   8.462578498
H        1.806972798  19.805543840   9.731101502
H        3.733999297   2.491230668   3.759170571
H        2.078339297   8.568269332   9.823730571
H        0.658080703  19.627769332   8.369939429
C        2.981012645  22.013415301   1.940285639
C        1.325352645  11.165084699   8.004845639
C        1.411057355   0.105584699  10.188824361
H        3.317179921  20.971768498   1.970099920
H        1.661519921  12.206731502   8.034659920
H        1.074890079   1.147231502  10.159010080
H        1.903084342  22.047547267   1.705321182
H        0.247424342  11.130952733   7.769871182
H        2.488985658   0.071452733  10.423798818
C       -2.366931211   0.707432134  10.519628721
C       -0.711271211  10.352067866   4.455068721
C        6.759001211  21.411567866   1.609491279
C        4.568779844   1.229858174   8.330425528
C        6.224439844   9.829641826   2.265865528
C       -0.176699844  20.889141826   3.798694472
H        4.209444268   1.973934434   7.619369592
H        5.865104268   9.085565566   1.554809592
H        0.182625732  20.145065566   4.509740408
C        4.860207672   1.659864547   9.618804208
C        6.515877672   9.399635453   3.554244208
C       -0.468137672  20.459135453   2.510305792
H        4.741235901   2.704153926   9.912497399
H        6.396895901   8.355346074   3.847937399
H       -0.349155901  19.414846074   2.216622601
C        3.723123240  21.931169004   4.258993391
C        2.067453240  11.247330996  10.323543391
C        0.668956760   0.187830996   7.870126609
H        3.982493294  20.893906982   4.026275507
H        2.326833294  12.284593018  10.090835507
H        0.409576706   1.225093018   8.102834493
C       -2.180503043  21.495663542  10.200389778
C       -0.524843043  11.682836458   4.135829778
C        6.572583043   0.623336458   1.928720222
H       -1.785702802  20.784043342  10.929694512
H       -0.130042802  12.394456658   4.865134512
H        6.177772802   1.334956658   1.199425488
C        5.243584235  21.083069347   8.885560127
C        6.899254235  12.095430653   2.821000127
C       -0.851514235   1.035930653   3.243549873
C        4.745341270  22.014124854   7.918744906
C        6.401011270  11.164375146   1.854184906
C       -0.353271270   0.104875146   4.210375094
N        3.231428789   0.512580055   3.235859459
N        1.575768789  10.546919945   9.300419459
N        1.160641211  21.606419945   8.893260541
C        4.481541264  21.536054648   6.541789134
C        6.137201264  11.642445352   0.477239134
C       -0.089461264   0.582945352   5.587320866
O       -2.243082394  19.800866156   8.547791669
O       -0.587422394  13.377633844   2.483231669
O        6.635152394   2.318133844   3.581328331
H        5.204003780  19.793316211   7.508131701
H        6.859663780  13.385183789   1.443571701
H       -0.811923780   2.325683789   4.620978299
F       -2.056292743   1.106970339  11.800307311
F       -0.400632743   9.952529661   5.735747311
F        6.448362743  21.012029661   0.328812689
O        4.752776608  20.296697361   6.281102735
O        6.408436608  12.881802639   0.216542735
O       -0.360696608   1.822302639   5.848017265
C       -0.077323701  16.018499101  10.176298277
C        1.578336299  17.160000899   4.111738277
C        4.469403701   6.100500899   1.952821723
C        3.940870093   0.276848243   5.543414060
C        2.285210093  10.782651757  11.607974060
C        0.451209907  21.842151757   6.585695940
H        3.690865180   1.303277384   5.799228865
H        2.035205180   9.756222616  11.863778865
H        0.701204820  20.815722616   6.329891135
End final coordinates



     Writing output data file 2HP-2.save
 
     init_run     :   2496.55s CPU   2512.07s WALL (       1 calls)
     electrons    : 150326.69s CPU 151467.52s WALL (       3 calls)
     update_pot   :      4.77s CPU      4.79s WALL (       2 calls)
     forces       :   2808.70s CPU   2811.57s WALL (       3 calls)

     Called by init_run:
     wfcinit      :   2486.34s CPU   2501.42s WALL (       1 calls)
     potinit      :      3.55s CPU      3.58s WALL (       1 calls)

     Called by electrons:
     c_bands      : 136575.15s CPU 137691.87s WALL (      30 calls)
     sum_band     :  13675.26s CPU  13688.00s WALL (      30 calls)
     v_of_rho     :     11.06s CPU     11.09s WALL (      33 calls)
     newd         :     31.07s CPU     42.06s WALL (      33 calls)
     mix_rho      :      1.97s CPU      2.06s WALL (      30 calls)

     Called by c_bands:
     init_us_2    :    857.99s CPU    858.30s WALL (    4992 calls)
     cegterg      : 133370.48s CPU 134486.03s WALL (    2340 calls)

     Called by sum_band:
     sum_band:bec :      5.93s CPU      5.94s WALL (    2340 calls)
     addusdens    :     31.72s CPU     41.69s WALL (      30 calls)

     Called by *egterg:
     h_psi        :  73928.46s CPU  73948.72s WALL (   11356 calls)
     s_psi        :  19636.18s CPU  19635.52s WALL (   11356 calls)
     g_psi        :    388.16s CPU    388.18s WALL (    8938 calls)
     cdiaghg      :   4326.78s CPU   4328.90s WALL (   11122 calls)

     Called by h_psi:
     h_psi:pot    :  73472.07s CPU  73485.99s WALL (   11356 calls)
     h_psi:calbec :  18812.29s CPU  18812.71s WALL (   11356 calls)
     vloc_psi     :  35022.72s CPU  35036.71s WALL (   11356 calls)
     add_vuspsi   :  19637.03s CPU  19636.48s WALL (   11356 calls)

     General routines
     calbec       :  27765.96s CPU  27766.27s WALL (   14632 calls)
     fft          :      4.68s CPU      4.74s WALL (     457 calls)
     fftw         :  36003.02s CPU  36014.39s WALL ( 5082396 calls)
     davcio       :      0.21s CPU    122.06s WALL (      78 calls)
 
     Parallel routines
     fft_scatter  :   3061.45s CPU   3065.54s WALL ( 5082853 calls)
 
     PWSCF        :     1d   19h14m CPU        1d   19h35m WALL

 
   This run was terminated on:   8:18:57   1Nov2017            

=------------------------------------------------------------------------------=
   JOB DONE.
=------------------------------------------------------------------------------=
